 vasp.5.4.4.18Apr17-6-g9f103f2a35 (build Feb 25 2019 10:51:38) complex          
  
 executed on             LinuxIFC date 2021.08.06  10:44:19
 running on   32 total cores
 distrk:  each k-point on   32 cores,    1 groups
 distr:  one band on NCORES_PER_BAND=  32 cores,    1 groups


--------------------------------------------------------------------------------------------------------


 INCAR:
 POTCAR:    PAW_PBE C 08Apr2002                   
 POTCAR:    PAW_PBE N 08Apr2002                   
 POTCAR:    PAW_PBE Fe 06Sep2000                  
 POTCAR:    PAW_PBE Sc_sv 07Sep2000               

 ----------------------------------------------------------------------------- 
|                                                                             |
|           W    W    AA    RRRRR   N    N  II  N    N   GGGG   !!!           |
|           W    W   A  A   R    R  NN   N  II  NN   N  G    G  !!!           |
|           W    W  A    A  R    R  N N  N  II  N N  N  G       !!!           |
|           W WW W  AAAAAA  RRRRR   N  N N  II  N  N N  G  GGG   !            |
|           WW  WW  A    A  R   R   N   NN  II  N   NN  G    G                |
|           W    W  A    A  R    R  N    N  II  N    N   GGGG   !!!           |
|                                                                             |
|      For optimal performance we recommend to set                            |
|        NCORE= 4 - approx SQRT( number of cores)                             |
|      NCORE specifies how many cores store one orbital (NPAR=cpu/NCORE).     |
|      This setting can  greatly improve the performance of VASP for DFT.     |
|      The default,   NCORE=1            might be grossly inefficient         |
|      on modern multi-core architectures or massively parallel machines.     |
|      Do your own testing !!!!                                               |
|      Unfortunately you need to use the default for GW and RPA calculations. |
|      (for HF NCORE is supported but not extensively tested yet)             |
|                                                                             |
 ----------------------------------------------------------------------------- 

 POTCAR:    PAW_PBE C 08Apr2002                   
   VRHFIN =C: s2p2                                                              
   LEXCH  = PE                                                                  
   EATOM  =   147.1560 eV,   10.8157 Ry                                         
                                                                                
   TITEL  = PAW_PBE C 08Apr2002                                                 
   LULTRA =        F    use ultrasoft PP ?                                      
   IUNSCR =        1    unscreen: 0-lin 1-nonlin 2-no                           
   RPACOR =    1.200    partial core radius                                     
   POMASS =   12.011; ZVAL   =    4.000    mass and valenz                      
   RCORE  =    1.500    outmost cutoff radius                                   
   RWIGS  =    1.630; RWIGS  =    0.863    wigner-seitz radius (au A)           
   ENMAX  =  400.000; ENMIN  =  300.000 eV                                      
   ICORE  =        2    local potential                                         
   LCOR   =        T    correct aug charges                                     
   LPAW   =        T    paw PP                                                  
   EAUG   =  644.873                                                            
   DEXC   =    0.000                                                            
   RMAX   =    1.529    core radius for proj-oper                               
   RAUG   =    1.300    factor for augmentation sphere                          
   RDEP   =    1.501    radius for radial grids                                 
   RDEPT  =    1.300    core radius for aug-charge                              
                                                                                
   Atomic configuration                                                         
    4 entries                                                                   
     n  l   j            E        occ.                                          
     1  0  0.50      -273.3789   2.0000                                         
     2  0  0.50       -13.7508   2.0000                                         
     2  1  0.50        -5.2854   2.0000                                         
     3  2  1.50        -5.4423   0.0000                                         
   Description                                                                  
     l       E           TYP  RCUT    TYP  RCUT                                 
     0    -13.7508458     23  1.200                                             
     0     -8.2022199     23  1.200                                             
     1     -5.2854383     23  1.500                                             
     1     34.0145650     23  1.500                                             
     2     -5.4423304      7  1.500                                             
  local pseudopotential read in
  partial core-charges read in
  partial kinetic energy density read in
  atomic valenz-charges read in
  non local Contribution for L=           0  read in
    real space projection operators read in
  non local Contribution for L=           0  read in
    real space projection operators read in
  non local Contribution for L=           1  read in
    real space projection operators read in
  non local Contribution for L=           1  read in
    real space projection operators read in
    PAW grid and wavefunctions read in
 
   number of l-projection  operators is LMAX  =           4
   number of lm-projection operators is LMMAX =           8
 
 POTCAR:    PAW_PBE N 08Apr2002                   
   VRHFIN =N: s2p3                                                              
   LEXCH  = PE                                                                  
   EATOM  =   264.5486 eV,   19.4438 Ry                                         
                                                                                
   TITEL  = PAW_PBE N 08Apr2002                                                 
   LULTRA =        F    use ultrasoft PP ?                                      
   IUNSCR =        1    unscreen: 0-lin 1-nonlin 2-no                           
   RPACOR =    1.200    partial core radius                                     
   POMASS =   14.001; ZVAL   =    5.000    mass and valenz                      
   RCORE  =    1.500    outmost cutoff radius                                   
   RWIGS  =    1.400; RWIGS  =    0.741    wigner-seitz radius (au A)           
   ENMAX  =  400.000; ENMIN  =  300.000 eV                                      
   ICORE  =        2    local potential                                         
   LCOR   =        T    correct aug charges                                     
   LPAW   =        T    paw PP                                                  
   EAUG   =  627.112                                                            
   DEXC   =    0.000                                                            
   RMAX   =    1.529    core radius for proj-oper                               
   RAUG   =    1.300    factor for augmentation sphere                          
   RDEP   =    1.514    radius for radial grids                                 
   RDEPT  =    1.338    core radius for aug-charge                              
                                                                                
   Atomic configuration                                                         
    4 entries                                                                   
     n  l   j            E        occ.                                          
     1  0  0.50      -384.7179   2.0000                                         
     2  0  0.50       -18.5828   2.0000                                         
     2  1  0.50        -7.0898   3.0000                                         
     3  2  1.50        -6.8029   0.0000                                         
   Description                                                                  
     l       E           TYP  RCUT    TYP  RCUT                                 
     0    -18.5828119     23  1.200                                             
     0    -13.5018863     23  1.200                                             
     1     -7.0897853     23  1.500                                             
     1      9.5240782     23  1.500                                             
     2     -6.8029130      7  1.500                                             
  local pseudopotential read in
  partial core-charges read in
  partial kinetic energy density read in
  atomic valenz-charges read in
  non local Contribution for L=           0  read in
    real space projection operators read in
  non local Contribution for L=           0  read in
    real space projection operators read in
  non local Contribution for L=           1  read in
    real space projection operators read in
  non local Contribution for L=           1  read in
    real space projection operators read in
    PAW grid and wavefunctions read in
 
   number of l-projection  operators is LMAX  =           4
   number of lm-projection operators is LMMAX =           8
 
 POTCAR:    PAW_PBE Fe 06Sep2000                  
   VRHFIN =Fe:  d7 s1                                                           
   LEXCH  = PE                                                                  
   EATOM  =   594.3153 eV,   43.6809 Ry                                         
                                                                                
   TITEL  = PAW_PBE Fe 06Sep2000                                                
   LULTRA =        F    use ultrasoft PP ?                                      
   IUNSCR =        1    unscreen: 0-lin 1-nonlin 2-no                           
   RPACOR =    2.000    partial core radius                                     
   POMASS =   55.847; ZVAL   =    8.000    mass and valenz                      
   RCORE  =    2.300    outmost cutoff radius                                   
   RWIGS  =    2.460; RWIGS  =    1.302    wigner-seitz radius (au A)           
   ENMAX  =  267.882; ENMIN  =  200.911 eV                                      
   RCLOC  =    1.701    cutoff for local pot                                    
   LCOR   =        T    correct aug charges                                     
   LPAW   =        T    paw PP                                                  
   EAUG   =  511.368                                                            
   DEXC   =    0.000                                                            
   RMAX   =    2.356    core radius for proj-oper                               
   RAUG   =    1.300    factor for augmentation sphere                          
   RDEP   =    2.442    radius for radial grids                                 
   RDEPT  =    1.890    core radius for aug-charge                              
                                                                                
   Atomic configuration                                                         
    9 entries                                                                   
     n  l   j            E        occ.                                          
     1  0  0.50     -6993.8440   2.0000                                         
     2  0  0.50      -814.6047   2.0000                                         
     2  1  1.50      -693.3689   6.0000                                         
     3  0  0.50       -89.4732   2.0000                                         
     3  1  1.50       -55.6373   6.0000                                         
     3  2  2.50        -3.8151   7.0000                                         
     4  0  0.50        -4.2551   1.0000                                         
     4  1  1.50        -3.4015   0.0000                                         
     4  3  2.50        -1.3606   0.0000                                         
   Description                                                                  
     l       E           TYP  RCUT    TYP  RCUT                                 
     2     -3.8151135     23  2.300                                             
     2     -5.1756961     23  2.300                                             
     0     -4.2550963     23  2.300                                             
     0      7.2035603     23  2.300                                             
     1     -2.7211652     23  2.300                                             
     1     18.4316424     23  2.300                                             
  local pseudopotential read in
  partial core-charges read in
  partial kinetic energy density read in
  atomic valenz-charges read in
  non local Contribution for L=           2  read in
    real space projection operators read in
  non local Contribution for L=           2  read in
    real space projection operators read in
  non local Contribution for L=           0  read in
    real space projection operators read in
  non local Contribution for L=           0  read in
    real space projection operators read in
  non local Contribution for L=           1  read in
    real space projection operators read in
  non local Contribution for L=           1  read in
    real space projection operators read in
    PAW grid and wavefunctions read in
 
   number of l-projection  operators is LMAX  =           6
   number of lm-projection operators is LMMAX =          18
 
 POTCAR:    PAW_PBE Sc_sv 07Sep2000               
   VRHFIN =Sc: 3p4s3d                                                           
   LEXCH  = PE                                                                  
   EATOM  =  1273.2868 eV,   93.5839 Ry                                         
                                                                                
   TITEL  = PAW_PBE Sc_sv 07Sep2000                                             
   LULTRA =        F    use ultrasoft PP ?                                      
   IUNSCR =        1    unscreen: 0-lin 1-nonlin 2-no                           
   RPACOR =    2.200    partial core radius                                     
   POMASS =   44.956; ZVAL   =   11.000    mass and valenz                      
   RCORE  =    2.500    outmost cutoff radius                                   
   RWIGS  =    2.700; RWIGS  =    1.429    wigner-seitz radius (au A)           
   ENMAX  =  222.660; ENMIN  =  166.995 eV                                      
   RCLOC  =    1.805    cutoff for local pot                                    
   LCOR   =        T    correct aug charges                                     
   LPAW   =        T    paw PP                                                  
   EAUG   =  443.063                                                            
   RMAX   =    2.551    core radius for proj-oper                               
   RAUG   =    1.300    factor for augmentation sphere                          
   RDEP   =    2.650    radius for radial grids                                 
   RDEPT  =    2.038    core radius for aug-charge                              
                                                                                
   Atomic configuration                                                         
    8 entries                                                                   
     n  l   j            E        occ.                                          
     1  0  0.50     -4394.2533   2.0000                                         
     2  0  0.50      -471.0040   2.0000                                         
     2  1  1.50      -384.9788   6.0000                                         
     3  0  0.50       -52.1410   2.0000                                         
     4  0  0.50        -3.5584   1.0000                                         
     3  1  1.50       -30.8841   6.0000                                         
     3  2  2.50        -1.3655   2.0000                                         
     4  3  2.50        -1.3606   0.0000                                         
   Description                                                                  
     l       E           TYP  RCUT    TYP  RCUT                                 
     0    -52.1409870     23  1.800                                             
     0     -3.5583698     23  2.500                                             
     1    -30.8840697     23  2.300                                             
     1      4.0817478     23  2.300                                             
     2     -1.3655397     23  2.500                                             
     2      0.3564476     23  2.500                                             
  local pseudopotential read in
  partial core-charges read in
  partial kinetic energy density read in
  atomic valenz-charges read in
  non local Contribution for L=           0  read in
    real space projection operators read in
  non local Contribution for L=           0  read in
    real space projection operators read in
  non local Contribution for L=           1  read in
    real space projection operators read in
  non local Contribution for L=           1  read in
    real space projection operators read in
  non local Contribution for L=           2  read in
    real space projection operators read in
  non local Contribution for L=           2  read in
    real space projection operators read in
    PAW grid and wavefunctions read in
 
   number of l-projection  operators is LMAX  =           6
   number of lm-projection operators is LMMAX =          18
 

 ----------------------------------------------------------------------------- 
|                                                                             |
|  ADVICE TO THIS USER RUNNING 'VASP/VAMP'   (HEAR YOUR MASTER'S VOICE ...):  |
|                                                                             |
|      You have a (more or less) 'large supercell' and for larger cells       |
|      it might be more efficient to use real space projection opertators     |
|      So try LREAL= Auto  in the INCAR   file.                               |
|      Mind:          For very  accurate calculation you might also keep the  |
|      reciprocal projection scheme          (i.e. LREAL=.FALSE.)             |
|                                                                             |
 ----------------------------------------------------------------------------- 

  PAW_PBE C 08Apr2002                   :
 energy of atom  1       EATOM= -147.1560
 kinetic energy error for atom=    0.0076 (will be added to EATOM!!)
  PAW_PBE N 08Apr2002                   :
 energy of atom  2       EATOM= -264.5486
 kinetic energy error for atom=    0.0138 (will be added to EATOM!!)
  PAW_PBE Fe 06Sep2000                  :
 energy of atom  3       EATOM= -594.3153
 kinetic energy error for atom=    0.0026 (will be added to EATOM!!)
  PAW_PBE Sc_sv 07Sep2000               :
 energy of atom  4       EATOM=-1273.2868
 kinetic energy error for atom=    0.0031 (will be added to EATOM!!)
 
 
 POSCAR:  C  N Fe Sc                             
  positions in cartesian coordinates
  No initial velocities read in
 exchange correlation table for  LEXCH =        8
   RHO(1)=    0.500       N(1)  =     2000
   RHO(2)=  100.500       N(2)  =     4000

 VTST: version 3.2, (02/03/18)

 CHAIN: initializing optimizer
 
 OPT: Using VASP Conjugate-Gradient optimizer
 CHAIN: Read ICHAIN            0
 
 POSCAR:  C  N Fe Sc                             
  positions in cartesian coordinates
  No initial velocities read in
 


--------------------------------------------------------------------------------------------------------


 ion  position               nearest neighbor table
   1  0.221  1.000  0.504-   3 1.42   4 1.43  20 1.43
   2  0.055  0.101  0.505-  34 1.42   3 1.44   7 1.44
   3  0.109  1.000  0.504-   1 1.42  18 1.44   2 1.44
   4  0.276  0.099  0.506-  22 1.42   1 1.43   5 1.43
   5  0.223  0.200  0.505-   7 1.43   4 1.43   8 1.45
   6  0.055  0.301  0.504-  38 1.43   7 1.44  11 1.45
   7  0.111  0.201  0.505-   5 1.43   6 1.44   2 1.44
   8  0.282  0.299  0.505-  51 1.43   5 1.45   9 1.45
   9  0.225  0.400  0.501-  11 1.43   8 1.45  12 1.46
  10  0.056  0.501  0.500-  42 1.44  15 1.44  11 1.45
  11  0.113  0.401  0.502-   9 1.43  10 1.45   6 1.45
  12  0.283  0.499  0.492-  53 1.34  13 1.46   9 1.46
  13  0.226  0.601  0.495-  15 1.44  16 1.46  12 1.46
  14  0.055  0.699  0.501-  46 1.43  19 1.44  15 1.44
  15  0.113  0.600  0.499-  14 1.44  10 1.44  13 1.44
  16  0.282  0.702  0.495-  55 1.38  17 1.45  13 1.46
  17  0.222  0.800  0.500-  19 1.43  20 1.43  16 1.45
  18  0.055  0.899  0.504-  50 1.42   3 1.44  19 1.44
  19  0.110  0.799  0.502-  17 1.43  18 1.44  14 1.44
  20  0.276  0.900  0.502-  28 1.42  17 1.43   1 1.43
  21  0.555  0.999  0.504-  30 1.42  23 1.42  24 1.42
  22  0.387  0.097  0.506-  26 1.41   4 1.42  23 1.42
  23  0.444  0.999  0.504-  28 1.42  21 1.42  22 1.42
  24  0.611  0.097  0.506-  25 1.41  32 1.42  21 1.42
  25  0.555  0.194  0.508-  24 1.41  52 1.41  26 1.43
  26  0.443  0.194  0.508-  22 1.41  51 1.41  25 1.43
  27  0.556  0.803  0.496-  56 1.38  30 1.42  29 1.45
  28  0.388  0.901  0.501-  23 1.42  29 1.42  20 1.42
  29  0.442  0.803  0.496-  55 1.38  28 1.42  27 1.45
  30  0.610  0.901  0.501-  21 1.42  27 1.42  48 1.42
  31  0.889  1.000  0.504-  33 1.42  50 1.44  34 1.44
  32  0.722  0.099  0.506-  24 1.42  33 1.43  37 1.43
  33  0.778  1.000  0.504-  31 1.42  32 1.43  48 1.43
  34  0.943  0.101  0.505-   2 1.42  31 1.44  35 1.44
  35  0.888  0.201  0.505-  37 1.43  38 1.44  34 1.44
  36  0.716  0.299  0.505-  52 1.43  37 1.45  41 1.45
  37  0.775  0.200  0.505-  35 1.43  32 1.43  36 1.45
  38  0.943  0.301  0.504-   6 1.43  35 1.44  39 1.45
  39  0.886  0.401  0.502-  41 1.43  42 1.45  38 1.45
  40  0.716  0.499  0.492-  54 1.34  45 1.46  41 1.46
  41  0.774  0.400  0.501-  39 1.43  36 1.45  40 1.46
  42  0.943  0.501  0.500-  10 1.44  43 1.44  39 1.45
  43  0.885  0.600  0.499-  46 1.44  42 1.44  45 1.44
  44  0.717  0.702  0.495-  56 1.38  49 1.45  45 1.46
  45  0.772  0.601  0.495-  43 1.44  44 1.46  40 1.46
  46  0.943  0.699  0.501-  14 1.43  47 1.44  43 1.44
  47  0.888  0.799  0.502-  49 1.43  50 1.44  46 1.44
  48  0.722  0.900  0.502-  30 1.42  49 1.43  33 1.43
  49  0.776  0.800  0.500-  47 1.43  48 1.43  44 1.45
  50  0.943  0.899  0.504-  18 1.42  31 1.44  47 1.44
  51  0.394  0.295  0.508-  26 1.41   8 1.43  57 1.95
  52  0.605  0.295  0.508-  25 1.41  36 1.43  57 1.95
  53  0.386  0.498  0.480-  12 1.34  57 1.88  58 2.03
  54  0.612  0.498  0.480-  40 1.34  57 1.88  58 2.03
  55  0.389  0.707  0.491-  16 1.38  29 1.38  58 2.16
  56  0.609  0.707  0.491-  44 1.38  27 1.38  58 2.16
  57  0.499  0.406  0.499-  53 1.88  54 1.88  52 1.95  51 1.95  58 2.62
  58  0.499  0.597  0.445-  53 2.03  54 2.03  55 2.16  56 2.16  57 2.62
 
  LATTYP: Found a triclinic cell.
 ALAT       =    17.8653784877
 B/A-ratio  =     0.7007828087
 C/A-ratio  =     1.8102972767
 COS(alpha) =     0.0006889450
 COS(beta)  =     0.5626504351
 COS(gamma) =     0.7007848635
  
  Lattice vectors:
  
 A1 = ( -12.7443959382,  12.5200659664,  -0.0082990857)
 A2 = (   0.0002769199,  12.5197474416,  -0.0081769826)
 A3 = ( -25.4863845921,   0.0098412947, -19.9104538129)


Analysis of symmetry for initial positions (statically):
=====================================================================
 Subroutine PRICEL returns:
 Original cell was already a primitive cell.
 

 Routine SETGRP: Setting up the symmetry group for a 
 triclinic supercell.


 Subroutine GETGRP returns: Found  1 space group operations
 (whereof  1 operations were pure point group operations)
 out of a pool of  2 trial point group operations.


The static configuration has the point symmetry C_1 .


Analysis of symmetry for dynamics (positions and initial velocities):
=====================================================================
 Subroutine PRICEL returns:
 Original cell was already a primitive cell.
 

 Routine SETGRP: Setting up the symmetry group for a 
 triclinic supercell.


 Subroutine GETGRP returns: Found  1 space group operations
 (whereof  1 operations were pure point group operations)
 out of a pool of  2 trial point group operations.


The dynamic configuration has the point symmetry C_1 .


Analysis of structural, dynamic, and magnetic symmetry:
=====================================================================
 Subroutine PRICEL returns:
 Original cell was already a primitive cell.
 

 Routine SETGRP: Setting up the symmetry group for a 
 triclinic supercell.


 Subroutine GETGRP returns: Found  1 space group operations
 (whereof  1 operations were pure point group operations)
 out of a pool of  2 trial point group operations.


The magnetic configuration has the point symmetry C_1 .


 Subroutine INISYM returns: Found  1 space group operations
 (whereof  1 operations are pure point group operations),
 and found     1 'primitive' translations

 
 
 KPOINTS: KPOINTS created by Atomic Simulation Env

Automatic generation of k-mesh.
Space group operators:
 irot       det(A)        alpha          n_x          n_y          n_z        tau_x        tau_y        tau_z
    1     1.000000     0.000000     1.000000     0.000000     0.000000     0.000000     0.000000     0.000000
 
 Subroutine IBZKPT returns following result:
 ===========================================
 
 Found      2 irreducible k-points:
 
 Following reciprocal coordinates:
            Coordinates               Weight
  0.250000  0.250000 -0.000000      2.000000
 -0.250000  0.250000 -0.000000      2.000000
 
 Following cartesian coordinates:
            Coordinates               Weight
  0.019617  0.019968  0.000012      2.000000
 -0.019616  0.019969  0.000006      2.000000
 
 
 Subroutine IBZKPT_HF returns following result:
 ==============================================
 
 Found      4 k-points in 1st BZ
 the following      4 k-points will be used (e.g. in the exchange kernel)
 Following reciprocal coordinates:   # in IRBZ
  0.250000  0.250000 -0.000000    0.25000000   1 t-inv F
 -0.250000  0.250000 -0.000000    0.25000000   2 t-inv F
 -0.250000 -0.250000  0.000000    0.25000000   1 t-inv T
  0.250000 -0.250000  0.000000    0.25000000   2 t-inv T


--------------------------------------------------------------------------------------------------------




 Dimension of arrays:
   k-points           NKPTS =      2   k-points in BZ     NKDIM =      4   number of bands    NBANDS=    157
   number of dos      NEDOS =    301   number of ions     NIONS =     58
   non local maximal  LDIM  =      6   non local SUM 2l+1 LMDIM =     18
   total plane-waves  NPLWV = ******
   max r-space proj   IRMAX =      1   max aug-charges    IRDMAX=  19417
   dimension x,y,z NGX =    96 NGY =   96 NGZ =  150
   dimension x,y,z NGXF=   192 NGYF=  192 NGZF=  300
   support grid    NGXF=   192 NGYF=  192 NGZF=  300
   ions per type =              52   4   1   1
   NGX,Y,Z   is equivalent  to a cutoff of  12.52, 12.75, 12.52 a.u.
   NGXF,Y,Z  is equivalent  to a cutoff of  25.05, 25.50, 25.05 a.u.

 SYSTEM =  unknown system                          
 POSCAR =   C  N Fe Sc                             

 Startparameter for this run:
   NWRITE =      2    write-flag & timer
   PREC   = accura    normal or accurate (medium, high low for compatibility)
   ISTART =      1    job   : 0-new  1-cont  2-samecut
   ICHARG =      0    charge: 1-file 2-atom 10-const
   ISPIN  =      2    spin polarized calculation?
   LNONCOLLINEAR =      F non collinear calculations
   LSORBIT =      F    spin-orbit coupling
   INIWAV =      1    electr: 0-lowe 1-rand  2-diag
   LASPH  =      T    aspherical Exc in radial PAW
   METAGGA=      F    non-selfconsistent MetaGGA calc.

 Electronic Relaxation 1
   ENCUT  =  500.0 eV  36.75 Ry    6.06 a.u.  23.24 22.83 36.30*2*pi/ulx,y,z
   ENINI  =  500.0     initial cutoff
   ENAUG  =  644.9 eV  augmentation charge cutoff
   NELM   =    250;   NELMIN=  2; NELMDL=  0     # of ELM steps 
   EDIFF  = 0.1E-03   stopping-criterion for ELM
   LREAL  =      F    real-space projection
   NLSPLINE    = F    spline interpolate recip. space projectors
   LCOMPAT=      F    compatible to vasp.4.4
   GGA_COMPAT  = T    GGA compatible to vasp.4.4-vasp.4.6
   LMAXPAW     = -100 max onsite density
   LMAXMIX     =    2 max onsite mixed and CHGCAR
   VOSKOWN=      0    Vosko Wilk Nusair interpolation
   ROPT   =    0.00000   0.00000   0.00000   0.00000
 Ionic relaxation
   EDIFFG = -.3E-01   stopping-criterion for IOM
   NSW    =      0    number of steps for IOM
   NBLOCK =      1;   KBLOCK =      1    inner block; outer block 
   IBRION =     -1    ionic relax: 0-MD 1-quasi-New 2-CG
   NFREE  =      1    steps in history (QN), initial steepest desc. (CG)
   ISIF   =      2    stress and relaxation
   IWAVPR =     10    prediction:  0-non 1-charg 2-wave 3-comb
   ISYM   =      3    0-nonsym 1-usesym 2-fastsym
   LCORR  =      T    Harris-Foulkes like correction to forces

   POTIM  = 0.5000    time-step for ionic-motion
   TEIN   =    0.0    initial temperature
   TEBEG  =    0.0;   TEEND  =   0.0 temperature during run
   SMASS  =  -3.00    Nose mass-parameter (am)
   estimated Nose-frequenzy (Omega)   =  0.10E-29 period in steps =****** mass=  -0.371E-26a.u.
   SCALEE = 1.0000    scale energy and forces
   NPACO  =    256;   APACO  = 16.0  distance and # of slots for P.C.
   PSTRESS=    0.0 pullay stress

  Mass of Ions in am
   POMASS =  12.01 14.00 55.85 44.96
  Ionic Valenz
   ZVAL   =   4.00  5.00  8.00 11.00
  Atomic Wigner-Seitz radii
   RWIGS  =  -1.00 -1.00 -1.00 -1.00
  virtual crystal weights 
   VCA    =   1.00  1.00  1.00  1.00
   NELECT =     247.0000    total number of electrons
   NUPDOWN=      -1.0000    fix difference up-down

 DOS related values:
   EMIN   =  10.00;   EMAX   =-10.00  energy-range for DOS
   EFERMI =   0.00
   ISMEAR =     0;   SIGMA  =   0.10  broadening in eV -4-tet -1-fermi 0-gaus

 Electronic relaxation 2 (details)
   IALGO  =     53    algorithm
   LDIAG  =      T    sub-space diagonalisation (order eigenvalues)
   LSUBROT=      F    optimize rotation matrix (better conditioning)
   TURBO    =      0    0=normal 1=particle mesh
   IRESTART =      0    0=no restart 2=restart with 2 vectors
   NREBOOT  =      0    no. of reboots
   NMIN     =      0    reboot dimension
   EREF     =   0.00    reference energy to select bands
   IMIX   =      4    mixing-type and parameters
     AMIX     =   0.40;   BMIX     =  1.00
     AMIX_MAG =   1.60;   BMIX_MAG =  1.00
     AMIN     =   0.10
     WC   =   100.;   INIMIX=   1;  MIXPRE=   1;  MAXMIX= -45

 Intra band minimization:
   WEIMIN = 0.0000     energy-eigenvalue tresh-hold
   EBREAK =  0.16E-06  absolut break condition
   DEPER  =   0.30     relativ break condition  

   TIME   =   0.20     timestep for ELM

  volume/ion in A,a.u.               =      54.77       369.63
  Fermi-wavevector in a.u.,A,eV,Ry     =   0.698726  1.320401  6.642617  0.488219
  Thomas-Fermi vector in A             =   1.782409
 
 Write flags
   LWAVE        =      T    write WAVECAR
   LDOWNSAMPLE  =      F    k-point downsampling of WAVECAR
   LCHARG       =      T    write CHGCAR
   LVTOT        =      F    write LOCPOT, total local potential
   LVHAR        =      F    write LOCPOT, Hartree potential only
   LELF         =      F    write electronic localiz. function (ELF)
   LORBIT       =     11    0 simple, 1 ext, 2 COOP (PROOUT), +10 PAW based schemes


 Dipole corrections
   LMONO  =      F    monopole corrections only (constant potential shift)
   LDIPOL =      T    correct potential (dipole corrections)
   IDIPOL =      3    1-x, 2-y, 3-z, 4-all directions 
   EPSILON=  1.0000000 bulk dielectric constant

 Exchange correlation treatment:
   GGA     =    PE    GGA type
   LEXCH   =     8    internal setting for exchange type
   VOSKOWN=      0    Vosko Wilk Nusair interpolation
   EXXOEP  =     0    0=HF, 1=EXX-LHF (local Hartree Fock) 2=EXX OEP
   LHFCALC =     T    Hartree Fock is set to
   LSYMGRAD=     F    symmetrize gradient (conserves proper symmetry)
   PRECFOCK=normal    Normal, Fast or Accurate (Low or Medium for compatibility)
   LRHFCALC=     F    long range Hartree Fock
   LRSCOR  =     F    long range correlation only (use DFT for short range part)
   LTHOMAS =     F    Thomas Fermi screening in HF
   LMODELHF=     F    short range full HF, long range fraction AEXX
   ENCUT4O =  -1.0   cutoff for four orbital integrals eV
   LMAXFOCK=     4    L truncation for augmentation on plane wave grid
   LMAXFOCKAE=  -1    L truncation for all-electron charge restoration on plane wave grid
   NMAXFOCKAE=   1    number of basis functions for all-electron charge restoration
   LFOCKAEDFT=     F  apply the AE augmentation even for DFT
   NKREDX  =     1    reduce k-point grid by
   NKREDY  =     1    reduce k-point grid by
   NKREDZ  =     1    reduce k-point grid by
   SHIFTRED=     F    shift reduced grid of Gamma
   HFKIDENT=     F    idential grid for each k-point
   ODDONLY =     F    use only odd q-grid points
   EVENONLY=     F    use only even q-grid points
   HFALPHA =   -1.0000 decay constant for conv. correction
   MCALPHA =    0.0000 extent of test-charge in conv. correction in multipole expansion
   AEXX    =    0.2500 exact exchange contribution
   HFSCREEN=    0.2000 screening length (either q_TF or 0.3 A-1)
   HFSCREENC=   0.2000 screening length for correlation (either q_TF or 0.3 A-1)
   HFRCUT  =    0.0000 spherical cutoff for potential kernel
   ALDAX   =    0.7500 LDA exchange part
   AGGAX   =    0.7500 GGA exchange part
   ALDAC   =    1.0000 LDA correlation
   AGGAC   =    1.0000 GGA correlation
   ENCUTFOCK=  -1.0 apply spherical cutoff to Coloumb kernel
   NBANDSGWLOW=     1    first orbital included in HF term
   NBLOCK_FOCK=    64    blocking factor in FOCK_ACC
 Linear response parameters
   LEPSILON=     F    determine dielectric tensor
   LRPA    =     F    only Hartree local field effects (RPA)
   LNABLA  =     F    use nabla operator in PAW spheres
   LVEL    =     F    velocity operator in full k-point grid
   LINTERFAST=   F  fast interpolation
   KINTER  =     0    interpolate to denser k-point grid
   CSHIFT  =0.1000    complex shift for real part using Kramers Kronig
   OMEGAMAX=  -1.0    maximum frequency
   DEG_THRESHOLD= 0.2000000E-02 threshold for treating states as degnerate
   RTIME   =   -0.100 relaxation time in fs
  (WPLASMAI=    0.000 imaginary part of plasma frequency in eV, 0.658/RTIME)
   DFIELD  = 0.0000000 0.0000000 0.0000000 field for delta impulse in time
 
 Orbital magnetization related:
   ORBITALMAG=     F  switch on orbital magnetization
   LCHIMAG   =     F  perturbation theory with respect to B field
   DQ        =  0.001000  dq finite difference perturbation B field
   LLRAUG    =     F  two centre corrections for induced B field



--------------------------------------------------------------------------------------------------------


 Static calculation
 charge density and potential will be updated during run
 spin polarized calculation
 Conjugate gradient for all bands (Freysoldt, et al. PRB 79, 241103 (2009))
 perform sub-space diagonalisation
    before iterative eigenvector-optimisation
 modified Broyden-mixing scheme, WC =      100.0
 initial mixing is a Kerker type mixing with AMIX =  0.4000 and BMIX =      1.0000
 Hartree-type preconditioning will be used
 using additional bands           33
 reciprocal scheme for non local part
 use partial core corrections
 no Harris-corrections to forces 
 use gradient corrections 
 use of overlap-Matrix (Vanderbilt PP)
 Gauss-broadening in eV      SIGMA  =   0.10


--------------------------------------------------------------------------------------------------------


  energy-cutoff  :      500.00
  volume of cell :     3176.87
      direct lattice vectors                 reciprocal lattice vectors
    12.744672858 -0.000318525  0.000122103     0.078464156 -0.000001728  0.000011669
     0.000276920 12.519747442 -0.008176983     0.000001996  0.079873840  0.000036925
    -0.002961124 -0.009204245 19.910209607    -0.000000480  0.000032804  0.050225503

  length of vectors
    12.744672863 12.519750115 19.910211955     0.078464157  0.079873848  0.050225514


 
 old parameters found on file WAVECAR:
  energy-cutoff  :      500.00
  volume of cell :     3176.87
      direct lattice vectors                 reciprocal lattice vectors
    12.708200000  0.000000000  0.000000000     0.078689350 -0.000003708  0.000012361
     0.000588648 12.491499986  0.000000000     0.000000000  0.080054437 -0.000017605
    -0.003143556  0.004401127 20.012499269     0.000000000  0.000000000  0.049968771

  length of vectors

 
 k-points in units of 2pi/SCALE and weight: KPOINTS created by Atomic Simulation Env
   0.01961654  0.01996803  0.00001215       0.500
  -0.01961554  0.01996889  0.00000631       0.500
 
 k-points in reciprocal lattice and weights: KPOINTS created by Atomic Simulation Env
   0.25000000  0.25000000 -0.00000000       0.500
  -0.25000000  0.25000000 -0.00000000       0.500
 
 position of ions in fractional coordinates (direct lattice) 
   0.22052131  0.99983453  0.50415855
   0.05493716  0.10051399  0.50500781
   0.10945684  0.99973553  0.50441561
   0.27611402  0.09915841  0.50554020
   0.22300963  0.20008529  0.50548732
   0.05526707  0.30071089  0.50430205
   0.11091600  0.20055797  0.50500950
   0.28199451  0.29922893  0.50476430
   0.22483356  0.39955512  0.50088100
   0.05574679  0.50072451  0.50044660
   0.11278580  0.40069076  0.50218010
   0.28271722  0.49946658  0.49216040
   0.22616942  0.60057155  0.49477972
   0.05537463  0.69901806  0.50105027
   0.11312027  0.60004693  0.49903516
   0.28158857  0.70217529  0.49529192
   0.22230432  0.80040148  0.50047513
   0.05497128  0.89930513  0.50366177
   0.11049634  0.79930062  0.50209528
   0.27617910  0.90049345  0.50188105
   0.55480599  0.99876374  0.50380969
   0.38721704  0.09679656  0.50631800
   0.44362164  0.99876417  0.50381191
   0.61121267  0.09679615  0.50631588
   0.55536548  0.19362166  0.50842017
   0.44306491  0.19362237  0.50842043
   0.55610422  0.80268867  0.49605437
   0.38797167  0.90106934  0.50079047
   0.44231781  0.80268832  0.49605535
   0.61045345  0.90106919  0.50078641
   0.88897061  0.99973647  0.50441433
   0.72231489  0.09915816  0.50553766
   0.77790572  0.99983389  0.50415533
   0.94349184  0.10051468  0.50500812
   0.88751328  0.20055840  0.50501096
   0.71643546  0.29922928  0.50476663
   0.77542006  0.20008518  0.50548861
   0.94316118  0.30071130  0.50430404
   0.88564176  0.40069067  0.50218338
   0.71570878  0.49946637  0.49215950
   0.77359502  0.39955530  0.50088354
   0.94267873  0.50072389  0.50044803
   0.88530479  0.60004618  0.49903675
   0.71683453  0.70217454  0.49529151
   0.77225510  0.60057130  0.49478011
   0.94304995  0.69901727  0.50105089
   0.88792898  0.79930025  0.50209536
   0.72224604  0.90049209  0.50187722
   0.77612059  0.80040039  0.50047319
   0.94345501  0.89930529  0.50366154
   0.39364821  0.29474884  0.50769306
   0.60478276  0.29474798  0.50769489
   0.38637100  0.49795754  0.48030229
   0.61205173  0.49795543  0.48029571
   0.38925936  0.70722977  0.49086429
   0.60916140  0.70723026  0.49086390
   0.49921452  0.40621308  0.49872854
   0.49919999  0.59748098  0.44506417
 
 position of ions in cartesian coordinates  (Angst):
   2.80925600 12.51296514 10.02975366
   0.69868854  1.25374411 10.05399619
   1.39377488 12.51175866 10.03485899
   3.51751340  1.23669718 10.06463415
   2.84074342  2.50029365 10.06274959
   0.70295069  3.76016504 10.03830741
   1.41214827  2.50625158 10.05321852
   3.59251592  3.74153487 10.04755075
   2.86405761  4.99764740  9.96940608
   0.70913135  6.26432044  9.95990917
   1.43604208  5.01188895  9.99524834
   3.60181943  6.24857543  9.79496717
   2.88115645  7.51437796  9.84628475
   0.70444147  8.74690015  9.97030683
   1.44036925  7.50780671  9.93100188
   3.58748199  8.78640878  9.85565872
   2.83193547 10.01614705  9.95804710
   0.69934858 11.25441982 10.02066458
   1.40697432 10.00238528  9.99029988
   3.51857547 11.26924315  9.98522734
   7.06960559 12.49945587 10.02285746
   4.93348201  1.20708487 10.08015330
   5.65259744 12.49949663 10.02288805
   7.78823310  1.20700835 10.08013835
   7.07649944  2.41923775 10.12123672
   5.64526552  2.41928247 10.12122822
   7.08611971 10.04471645  9.87005080
   4.94333862 11.27642763  9.96352258
   5.63594924 10.04474835  9.87005653
   7.77879620 11.27635486  9.96346891
  11.32842284 12.51152215 10.03492876
   9.20419743  1.23655198 10.06463825
   9.91293792 12.51277966 10.02975763
  12.02302730  1.25346968 10.05411076
  11.30962657  2.50600957 10.05334256
   9.12932376  3.74140088 10.04765002
   9.88103358  2.50011634 10.06284282
  12.01887064  3.75988732 10.03845541
  11.28583840  5.01164173  9.99540799
   9.12015520  6.24843489  9.79500199
   9.85784294  4.99747483  9.96952366
  12.01278883  6.26403018  9.96004595
  11.28160834  7.50755139  9.93112780
   9.13454936  8.78626073  9.85570362
   9.84083987  7.51420100  9.84635906
  12.01757300  8.74660746  9.97042761
  11.31509891 10.00213306  9.99039636
   9.20355277 11.26908411  9.98520562
   9.89014272 10.01595707  9.95807595
  12.02278307 11.25413881 10.02076848
   5.01549588  3.68538272 10.10591311
   7.70633665  3.68530467 10.10597534
   4.92288766  6.22975879  9.55889474
   7.79911476  6.22966056  9.55879119
   4.95972556  8.84969612  9.76747551
   7.76230506  8.84963218  9.76749442
   6.36096144  5.08093572  9.92652917
   6.36098817  7.47605549  8.85649624
 


--------------------------------------------------------------------------------------------------------


 k-point  1 :   0.2500 0.2500-0.0000  plane waves:   80649
 k-point  2 :  -0.2500 0.2500-0.0000  plane waves:   80648

 maximum and minimum number of plane-waves per node :      2559     2483

 maximum number of plane-waves:     80649
 maximum index in each direction: 
   IXMAX=   23   IYMAX=   22   IZMAX=   36
   IXMIN=  -23   IYMIN=  -23   IZMIN=  -36


 parallel 3D FFT for wavefunctions:
    minimum data exchange during FFTs selected (reduces bandwidth)
 parallel 3D FFT for charge:
    minimum data exchange during FFTs selected (reduces bandwidth)


 FFT grid for exact exchange (Hartree Fock) 
  NGX = 70; NGY = 70; NGZ =112

 
 Radii for the augmentation spheres in the non-local exchange
 for species   1 augmentation radius   0.874 (default was   0.699)
       energy cutoff for augmentation   2000.0
 for species   2 augmentation radius   0.886 (default was   0.709)
       energy cutoff for augmentation   2000.0
 for species   3 augmentation radius   1.263 (default was   1.010)
       energy cutoff for augmentation   2000.0
 for species   4 augmentation radius   1.357 (default was   1.085)
       energy cutoff for augmentation   2000.0

 real space projection operators:
  total allocation   :       2537.09 KBytes
  max/ min on nodes  :        133.45         38.95

 Maximum index for augmentation-charges in exchange          154
  SETUP_FOCK is finished

 total amount of memory used by VASP MPI-rank0   166683. kBytes
=======================================================================

   base      :      30000. kBytes
   nonl-proj :       5339. kBytes
   fftplans  :      14250. kBytes
   grid      :      36827. kBytes
   one-center:         62. kBytes
   HF        :         23. kBytes
   nonlr-proj:       2020. kBytes
   wavefun   :      78162. kBytes
 
     INWAV:  cpu time    3.5703: real time    3.5715
 Broyden mixing: mesh for mixing (old mesh)
   NGX = 47   NGY = 45   NGZ = 73
  (NGX  =192   NGY  =192   NGZ  =300)
  gives a total of 154395 points

 charge density for first step will be calculated from the start-wavefunctions


--------------------------------------------------------------------------------------------------------


 Maximum index for augmentation-charges          853 (set IRDMAX)


--------------------------------------------------------------------------------------------------------


 initial charge from wavefunction
 First call to EWALD:  gamma=   0.121
 Maximum number of real-space cells 3x 3x 2
 Maximum number of reciprocal cells 2x 2x 4

    FEWALD:  cpu time    0.0036: real time    0.0036


--------------------------------------- Iteration      1(   1)  ---------------------------------------


    POTLOK:  cpu time    1.4049: real time    1.4050
    SETDIJ:  cpu time    2.0981: real time    2.0989
    TRIAL :  cpu time  531.6115: real time  531.8650
    CORREC:  cpu time    0.0013: real time    0.0016
    CHARGE:  cpu time    1.7052: real time    1.7053
    --------------------------------------------
      LOOP:  cpu time  536.8381: real time  537.0945

 eigenvalue-minimisations  :     0
 total energy-change (2. order) :-0.6074187E+03  (-0.4358270E+00)
 number of electron     246.9999998 magnetization       3.0000000
 augmentation part       12.8632014 magnetization       1.9143332

 DIPCOR: dipole corrections for dipol
 direction  3 min pos     1,
 dipolmoment          -0.000099     -0.000309      0.668231 electrons x Angstroem
 Tr[quadrupol]     -6909.164206

 energy correction for charged system         0.000000 eV
 dipol+quadrupol energy correction           -0.012769 eV
 added-field ion interaction          0.347845 eV  (added to PSCEN)


 Free energy of the ion-electron system (eV)
  ---------------------------------------------------
  alpha Z        PSCENC =       107.28825991
  Ewald energy   TEWEN  =     39270.96550264
  -Hartree energ DENC   =    -48293.49743237
  -exchange      EXHF   =       567.52416769
  -V(xc)+E(xc)   XCENC  =       652.48933337
  PAW double counting   =     26761.15671850   -26789.06627104
  entropy T*S    EENTRO =        -0.00000215
  eigenvalues    EBANDS =     -3351.72143803
  atomic energy  EATOM  =     10467.44249161
  ---------------------------------------------------
  free energy    TOTEN  =      -607.41872700 eV

  energy without entropy =     -607.41872484  energy(sigma->0) =     -607.41872592
  exchange ACFDT corr.  =        -0.00014386  see jH, gK, PRB 81, 115126


--------------------------------------------------------------------------------------------------------




--------------------------------------- Iteration      1(   2)  ---------------------------------------


    POTLOK:  cpu time    1.4077: real time    1.4118
    SETDIJ:  cpu time    2.0811: real time    2.0849
    TRIAL :  cpu time  531.9293: real time  532.1598
    CORREC:  cpu time    0.0011: real time    0.0014
    CHARGE:  cpu time    1.6995: real time    1.6996
    --------------------------------------------
      LOOP:  cpu time  537.1217: real time  537.3610

 eigenvalue-minimisations  :     0
 total energy-change (2. order) :-0.3467797E+00  (-0.3534005E+00)
 number of electron     246.9999998 magnetization       3.0000000
 augmentation part       12.8317312 magnetization       1.9589823

 DIPCOR: dipole corrections for dipol
 direction  3 min pos     1,
 dipolmoment          -0.000102     -0.000317      0.685894 electrons x Angstroem
 Tr[quadrupol]     -6909.011881

 energy correction for charged system         0.000000 eV
 dipol+quadrupol energy correction           -0.013453 eV
 added-field ion interaction          0.357040 eV  (added to PSCEN)


 Free energy of the ion-electron system (eV)
  ---------------------------------------------------
  alpha Z        PSCENC =       107.29677071
  Ewald energy   TEWEN  =     39270.96550264
  -Hartree energ DENC   =    -48275.75561810
  -exchange      EXHF   =       567.36063657
  -V(xc)+E(xc)   XCENC  =       652.02526976
  PAW double counting   =     27027.20798736   -27055.06711523
  entropy T*S    EENTRO =        -0.00000002
  eigenvalues    EBANDS =     -3369.24142989
  atomic energy  EATOM  =     10467.44249161
  ---------------------------------------------------
  free energy    TOTEN  =      -607.76550672 eV

  energy without entropy =     -607.76550671  energy(sigma->0) =     -607.76550671
  exchange ACFDT corr.  =        -0.00000429  see jH, gK, PRB 81, 115126


--------------------------------------------------------------------------------------------------------




--------------------------------------- Iteration      1(   3)  ---------------------------------------


    POTLOK:  cpu time    1.4140: real time    1.4140
    SETDIJ:  cpu time    2.0872: real time    2.0872
    TRIAL :  cpu time  532.3204: real time  532.5489
    CORREC:  cpu time    0.0009: real time    0.0009
    CHARGE:  cpu time    1.6968: real time    1.6970
    --------------------------------------------
      LOOP:  cpu time  537.5215: real time  537.7504

 eigenvalue-minimisations  :     0
 total energy-change (2. order) :-0.2723972E+00  (-0.2138679E+00)
 number of electron     246.9999998 magnetization       3.0000000
 augmentation part       12.8335324 magnetization       1.9986767

 DIPCOR: dipole corrections for dipol
 direction  3 min pos     1,
 dipolmoment          -0.000103     -0.000320      0.691375 electrons x Angstroem
 Tr[quadrupol]     -6908.846879

 energy correction for charged system         0.000000 eV
 dipol+quadrupol energy correction           -0.013669 eV
 added-field ion interaction          0.359893 eV  (added to PSCEN)


 Free energy of the ion-electron system (eV)
  ---------------------------------------------------
  alpha Z        PSCENC =       107.29940787
  Ewald energy   TEWEN  =     39270.96550264
  -Hartree energ DENC   =    -48259.02262171
  -exchange      EXHF   =       567.25479469
  -V(xc)+E(xc)   XCENC  =       651.60845597
  PAW double counting   =     27236.86445928   -27264.71217456
  entropy T*S    EENTRO =        -0.00000000
  eigenvalues    EBANDS =     -3385.73821975
  atomic energy  EATOM  =     10467.44249161
  ---------------------------------------------------
  free energy    TOTEN  =      -608.03790397 eV

  energy without entropy =     -608.03790397  energy(sigma->0) =     -608.03790397
  exchange ACFDT corr.  =        -0.00000003  see jH, gK, PRB 81, 115126


--------------------------------------------------------------------------------------------------------




--------------------------------------- Iteration      1(   4)  ---------------------------------------


    POTLOK:  cpu time    1.4145: real time    1.4148
    SETDIJ:  cpu time    2.0881: real time    2.0881
    TRIAL :  cpu time  532.5389: real time  532.7497
    CORREC:  cpu time    0.0006: real time    0.0006
    CHARGE:  cpu time    1.6966: real time    1.6968
    --------------------------------------------
      LOOP:  cpu time  537.7410: real time  537.9524

 eigenvalue-minimisations  :     0
 total energy-change (2. order) :-0.1631937E+00  (-0.1144733E+00)
 number of electron     246.9999998 magnetization       3.0000000
 augmentation part       12.8379064 magnetization       2.0280092

 DIPCOR: dipole corrections for dipol
 direction  3 min pos     1,
 dipolmoment          -0.000102     -0.000318      0.687890 electrons x Angstroem
 Tr[quadrupol]     -6908.770560

 energy correction for charged system         0.000000 eV
 dipol+quadrupol energy correction           -0.013531 eV
 added-field ion interaction          0.358079 eV  (added to PSCEN)


 Free energy of the ion-electron system (eV)
  ---------------------------------------------------
  alpha Z        PSCENC =       107.29773128
  Ewald energy   TEWEN  =     39270.96550264
  -Hartree energ DENC   =    -48251.73398382
  -exchange      EXHF   =       567.33182396
  -V(xc)+E(xc)   XCENC  =       651.45465076
  PAW double counting   =     27297.90041957   -27325.78732366
  entropy T*S    EENTRO =        -0.00000000
  eigenvalues    EBANDS =     -3393.07241004
  atomic energy  EATOM  =     10467.44249161
  ---------------------------------------------------
  free energy    TOTEN  =      -608.20109769 eV

  energy without entropy =     -608.20109769  energy(sigma->0) =     -608.20109769
  exchange ACFDT corr.  =        -0.00000000  see jH, gK, PRB 81, 115126


--------------------------------------------------------------------------------------------------------




--------------------------------------- Iteration      1(   5)  ---------------------------------------


    POTLOK:  cpu time    1.4133: real time    1.4134
    SETDIJ:  cpu time    2.0899: real time    2.0901
    TRIAL :  cpu time  529.7306: real time  529.9377
    CORREC:  cpu time    0.0006: real time    0.0009
    CHARGE:  cpu time    1.6962: real time    1.7004
    --------------------------------------------
      LOOP:  cpu time  534.9326: real time  535.1465

 eigenvalue-minimisations  :     0
 total energy-change (2. order) :-0.8936793E-01  (-0.6996771E-01)
 number of electron     246.9999998 magnetization       3.0000000
 augmentation part       12.8344477 magnetization       2.0482428

 DIPCOR: dipole corrections for dipol
 direction  3 min pos     1,
 dipolmoment          -0.000102     -0.000318      0.688668 electrons x Angstroem
 Tr[quadrupol]     -6908.782827

 energy correction for charged system         0.000000 eV
 dipol+quadrupol energy correction           -0.013562 eV
 added-field ion interaction          0.358484 eV  (added to PSCEN)


 Free energy of the ion-electron system (eV)
  ---------------------------------------------------
  alpha Z        PSCENC =       107.29810562
  Ewald energy   TEWEN  =     39270.96550264
  -Hartree energ DENC   =    -48251.52850887
  -exchange      EXHF   =       567.54313072
  -V(xc)+E(xc)   XCENC  =       651.48506074
  PAW double counting   =     27335.64936271   -27363.61137914
  entropy T*S    EENTRO =        -0.00000000
  eigenvalues    EBANDS =     -3393.53423164
  atomic energy  EATOM  =     10467.44249161
  ---------------------------------------------------
  free energy    TOTEN  =      -608.29046562 eV

  energy without entropy =     -608.29046562  energy(sigma->0) =     -608.29046562
  exchange ACFDT corr.  =        -0.00000000  see jH, gK, PRB 81, 115126


--------------------------------------------------------------------------------------------------------




--------------------------------------- Iteration      1(   6)  ---------------------------------------


    POTLOK:  cpu time    1.4127: real time    1.4128
    SETDIJ:  cpu time    2.0881: real time    2.0882
    TRIAL :  cpu time  529.9059: real time  530.1287
    CORREC:  cpu time    0.0006: real time    0.0009
    CHARGE:  cpu time    1.6963: real time    1.6963
    --------------------------------------------
      LOOP:  cpu time  535.1067: real time  535.5848

 eigenvalue-minimisations  :     0
 total energy-change (2. order) :-0.5754889E-01  (-0.4550949E-01)
 number of electron     246.9999998 magnetization       3.0000000
 augmentation part       12.8318439 magnetization       2.0625560

 DIPCOR: dipole corrections for dipol
 direction  3 min pos     1,
 dipolmoment          -0.000103     -0.000321      0.694768 electrons x Angstroem
 Tr[quadrupol]     -6908.833865

 energy correction for charged system         0.000000 eV
 dipol+quadrupol energy correction           -0.013803 eV
 added-field ion interaction          0.361659 eV  (added to PSCEN)


 Free energy of the ion-electron system (eV)
  ---------------------------------------------------
  alpha Z        PSCENC =       107.30103951
  Ewald energy   TEWEN  =     39270.96550264
  -Hartree energ DENC   =    -48253.97968755
  -exchange      EXHF   =       567.78658428
  -V(xc)+E(xc)   XCENC  =       651.57905242
  PAW double counting   =     27391.28670341   -27419.33337243
  entropy T*S    EENTRO =        -0.00000000
  eigenvalues    EBANDS =     -3391.39632840
  atomic energy  EATOM  =     10467.44249161
  ---------------------------------------------------
  free energy    TOTEN  =      -608.34801451 eV

  energy without entropy =     -608.34801451  energy(sigma->0) =     -608.34801451
  exchange ACFDT corr.  =        -0.00000000  see jH, gK, PRB 81, 115126


--------------------------------------------------------------------------------------------------------




--------------------------------------- Iteration      1(   7)  ---------------------------------------


    POTLOK:  cpu time    1.4098: real time    1.4098
    SETDIJ:  cpu time    2.0845: real time    2.0846
    TRIAL :  cpu time  530.3791: real time  530.5952
    CORREC:  cpu time    0.0006: real time    0.0009
    CHARGE:  cpu time    1.7047: real time    1.7048
    --------------------------------------------
      LOOP:  cpu time  535.5812: real time  535.7977

 eigenvalue-minimisations  :     0
 total energy-change (2. order) :-0.3798495E-01  (-0.2911117E-01)
 number of electron     246.9999998 magnetization       3.0000000
 augmentation part       12.8347058 magnetization       2.0735980

 DIPCOR: dipole corrections for dipol
 direction  3 min pos     1,
 dipolmoment          -0.000104     -0.000324      0.700380 electrons x Angstroem
 Tr[quadrupol]     -6908.882999

 energy correction for charged system         0.000000 eV
 dipol+quadrupol energy correction           -0.014027 eV
 added-field ion interaction          0.364580 eV  (added to PSCEN)


 Free energy of the ion-electron system (eV)
  ---------------------------------------------------
  alpha Z        PSCENC =       107.30373671
  Ewald energy   TEWEN  =     39270.96550264
  -Hartree energ DENC   =    -48256.72605329
  -exchange      EXHF   =       567.99766333
  -V(xc)+E(xc)   XCENC  =       651.67869205
  PAW double counting   =     27443.57384662   -27471.69750139
  entropy T*S    EENTRO =        -0.00000000
  eigenvalues    EBANDS =     -3388.92437776
  atomic energy  EATOM  =     10467.44249161
  ---------------------------------------------------
  free energy    TOTEN  =      -608.38599946 eV

  energy without entropy =     -608.38599946  energy(sigma->0) =     -608.38599946
  exchange ACFDT corr.  =        -0.00000000  see jH, gK, PRB 81, 115126


--------------------------------------------------------------------------------------------------------




--------------------------------------- Iteration      1(   8)  ---------------------------------------


    POTLOK:  cpu time    1.4087: real time    1.4088
    SETDIJ:  cpu time    2.0881: real time    2.0881
    TRIAL :  cpu time  529.6912: real time  529.9125
    CORREC:  cpu time    0.0006: real time    0.0006
    CHARGE:  cpu time    1.6951: real time    1.6954
    --------------------------------------------
      LOOP:  cpu time  534.8860: real time  535.1077

 eigenvalue-minimisations  :     0
 total energy-change (2. order) :-0.2501058E-01  (-0.1969923E-01)
 number of electron     246.9999998 magnetization       3.0000000
 augmentation part       12.8402361 magnetization       2.0829027

 DIPCOR: dipole corrections for dipol
 direction  3 min pos     1,
 dipolmoment          -0.000104     -0.000325      0.702353 electrons x Angstroem
 Tr[quadrupol]     -6908.913257

 energy correction for charged system         0.000000 eV
 dipol+quadrupol energy correction           -0.014106 eV
 added-field ion interaction          0.365607 eV  (added to PSCEN)


 Free energy of the ion-electron system (eV)
  ---------------------------------------------------
  alpha Z        PSCENC =       107.30468467
  Ewald energy   TEWEN  =     39270.96550264
  -Hartree energ DENC   =    -48258.82001393
  -exchange      EXHF   =       568.15126720
  -V(xc)+E(xc)   XCENC  =       651.76081572
  PAW double counting   =     27474.12355145   -27502.31195770
  entropy T*S    EENTRO =        -0.00000000
  eigenvalues    EBANDS =     -3387.02735169
  atomic energy  EATOM  =     10467.44249161
  ---------------------------------------------------
  free energy    TOTEN  =      -608.41101003 eV

  energy without entropy =     -608.41101003  energy(sigma->0) =     -608.41101003
  exchange ACFDT corr.  =         0.00000000  see jH, gK, PRB 81, 115126


--------------------------------------------------------------------------------------------------------




--------------------------------------- Iteration      1(   9)  ---------------------------------------


    POTLOK:  cpu time    1.4098: real time    1.4100
    SETDIJ:  cpu time    2.0904: real time    2.0904
    TRIAL :  cpu time  530.0864: real time  530.3373
    CORREC:  cpu time    0.0006: real time    0.0009
    CHARGE:  cpu time    1.6937: real time    1.6937
    --------------------------------------------
      LOOP:  cpu time  535.2825: real time  535.5360

 eigenvalue-minimisations  :     0
 total energy-change (2. order) :-0.1730799E-01  (-0.1379074E-01)
 number of electron     246.9999998 magnetization       3.0000000
 augmentation part       12.8447978 magnetization       2.0911279

 DIPCOR: dipole corrections for dipol
 direction  3 min pos     1,
 dipolmoment          -0.000104     -0.000324      0.701367 electrons x Angstroem
 Tr[quadrupol]     -6908.924966

 energy correction for charged system         0.000000 eV
 dipol+quadrupol energy correction           -0.014066 eV
 added-field ion interaction          0.365094 eV  (added to PSCEN)


 Free energy of the ion-electron system (eV)
  ---------------------------------------------------
  alpha Z        PSCENC =       107.30421088
  Ewald energy   TEWEN  =     39270.96550264
  -Hartree energ DENC   =    -48259.98920287
  -exchange      EXHF   =       568.24869519
  -V(xc)+E(xc)   XCENC  =       651.81669968
  PAW double counting   =     27484.72645402   -27512.96680781
  entropy T*S    EENTRO =        -0.00000000
  eigenvalues    EBANDS =     -3385.97636136
  atomic energy  EATOM  =     10467.44249161
  ---------------------------------------------------
  free energy    TOTEN  =      -608.42831802 eV

  energy without entropy =     -608.42831802  energy(sigma->0) =     -608.42831802
  exchange ACFDT corr.  =         0.00000000  see jH, gK, PRB 81, 115126


--------------------------------------------------------------------------------------------------------




--------------------------------------- Iteration      1(  10)  ---------------------------------------


    POTLOK:  cpu time    1.4058: real time    1.4060
    SETDIJ:  cpu time    2.0811: real time    2.0849
    TRIAL :  cpu time  529.8825: real time  530.0784
    CORREC:  cpu time    0.0006: real time    0.0009
    CHARGE:  cpu time    1.6789: real time    1.6790
    --------------------------------------------
      LOOP:  cpu time  535.0511: real time  535.2513

 eigenvalue-minimisations  :     0
 total energy-change (2. order) :-0.1227220E-01  (-0.9832127E-02)
 number of electron     246.9999998 magnetization       3.0000000
 augmentation part       12.8470039 magnetization       2.0985256

 DIPCOR: dipole corrections for dipol
 direction  3 min pos     1,
 dipolmoment          -0.000104     -0.000323      0.699457 electrons x Angstroem
 Tr[quadrupol]     -6908.925802

 energy correction for charged system         0.000000 eV
 dipol+quadrupol energy correction           -0.013990 eV
 added-field ion interaction          0.364100 eV  (added to PSCEN)


 Free energy of the ion-electron system (eV)
  ---------------------------------------------------
  alpha Z        PSCENC =       107.30329355
  Ewald energy   TEWEN  =     39270.96550264
  -Hartree energ DENC   =    -48260.40911736
  -exchange      EXHF   =       568.30605800
  -V(xc)+E(xc)   XCENC  =       651.84928489
  PAW double counting   =     27485.90331179   -27514.18375315
  entropy T*S    EENTRO =        -0.00000000
  eigenvalues    EBANDS =     -3385.61766219
  atomic energy  EATOM  =     10467.44249161
  ---------------------------------------------------
  free energy    TOTEN  =      -608.44059022 eV

  energy without entropy =     -608.44059022  energy(sigma->0) =     -608.44059022
  exchange ACFDT corr.  =         0.00000000  see jH, gK, PRB 81, 115126


--------------------------------------------------------------------------------------------------------




--------------------------------------- Iteration      1(  11)  ---------------------------------------


    POTLOK:  cpu time    1.4026: real time    1.4028
    SETDIJ:  cpu time    2.0856: real time    2.0856
    TRIAL :  cpu time  529.9823: real time  530.2082
    CORREC:  cpu time    0.0006: real time    0.0006
    CHARGE:  cpu time    1.6831: real time    1.6835
    --------------------------------------------
      LOOP:  cpu time  535.1565: real time  535.3830

 eigenvalue-minimisations  :     0
 total energy-change (2. order) :-0.8845734E-02  (-0.7133008E-02)
 number of electron     246.9999998 magnetization       3.0000000
 augmentation part       12.8477459 magnetization       2.1051858

 DIPCOR: dipole corrections for dipol
 direction  3 min pos     1,
 dipolmoment          -0.000104     -0.000323      0.698196 electrons x Angstroem
 Tr[quadrupol]     -6908.923098

 energy correction for charged system         0.000000 eV
 dipol+quadrupol energy correction           -0.013940 eV
 added-field ion interaction          0.363444 eV  (added to PSCEN)


 Free energy of the ion-electron system (eV)
  ---------------------------------------------------
  alpha Z        PSCENC =       107.30268719
  Ewald energy   TEWEN  =     39270.96550264
  -Hartree energ DENC   =    -48260.41969734
  -exchange      EXHF   =       568.34128487
  -V(xc)+E(xc)   XCENC  =       651.86704175
  PAW double counting   =     27485.59710587   -27513.90749112
  entropy T*S    EENTRO =        -0.00000000
  eigenvalues    EBANDS =     -3385.63836143
  atomic energy  EATOM  =     10467.44249161
  ---------------------------------------------------
  free energy    TOTEN  =      -608.44943595 eV

  energy without entropy =     -608.44943595  energy(sigma->0) =     -608.44943595
  exchange ACFDT corr.  =        -0.00000000  see jH, gK, PRB 81, 115126


--------------------------------------------------------------------------------------------------------




--------------------------------------- Iteration      1(  12)  ---------------------------------------


    POTLOK:  cpu time    1.4039: real time    1.4039
    SETDIJ:  cpu time    2.0849: real time    2.0849
    TRIAL :  cpu time  530.2236: real time  530.4332
    CORREC:  cpu time    0.0006: real time    0.0008
    CHARGE:  cpu time    1.6920: real time    1.6960
    --------------------------------------------
      LOOP:  cpu time  535.4074: real time  535.6213

 eigenvalue-minimisations  :     0
 total energy-change (2. order) :-0.6471771E-02  (-0.5232525E-02)
 number of electron     246.9999998 magnetization       3.0000000
 augmentation part       12.8483602 magnetization       2.1111213

 DIPCOR: dipole corrections for dipol
 direction  3 min pos     1,
 dipolmoment          -0.000104     -0.000323      0.697978 electrons x Angstroem
 Tr[quadrupol]     -6908.920677

 energy correction for charged system         0.000000 eV
 dipol+quadrupol energy correction           -0.013931 eV
 added-field ion interaction          0.363330 eV  (added to PSCEN)


 Free energy of the ion-electron system (eV)
  ---------------------------------------------------
  alpha Z        PSCENC =       107.30258274
  Ewald energy   TEWEN  =     39270.96550264
  -Hartree energ DENC   =    -48260.31612250
  -exchange      EXHF   =       568.36701783
  -V(xc)+E(xc)   XCENC  =       651.87844671
  PAW double counting   =     27486.36625419   -27514.69886616
  entropy T*S    EENTRO =        -0.00000000
  eigenvalues    EBANDS =     -3385.76321479
  atomic energy  EATOM  =     10467.44249161
  ---------------------------------------------------
  free energy    TOTEN  =      -608.45590772 eV

  energy without entropy =     -608.45590772  energy(sigma->0) =     -608.45590772
  exchange ACFDT corr.  =        -0.00000000  see jH, gK, PRB 81, 115126


--------------------------------------------------------------------------------------------------------




--------------------------------------- Iteration      1(  13)  ---------------------------------------


    POTLOK:  cpu time    1.4012: real time    1.4012
    SETDIJ:  cpu time    2.0781: real time    2.0781
    TRIAL :  cpu time  529.4232: real time  529.6351
    CORREC:  cpu time    0.0006: real time    0.0006
    CHARGE:  cpu time    1.6827: real time    1.6831
    --------------------------------------------
      LOOP:  cpu time  534.5891: real time  534.8014

 eigenvalue-minimisations  :     0
 total energy-change (2. order) :-0.4786737E-02  (-0.3892225E-02)
 number of electron     246.9999998 magnetization       3.0000000
 augmentation part       12.8492650 magnetization       2.1163548

 DIPCOR: dipole corrections for dipol
 direction  3 min pos     1,
 dipolmoment          -0.000104     -0.000323      0.698273 electrons x Angstroem
 Tr[quadrupol]     -6908.919225

 energy correction for charged system         0.000000 eV
 dipol+quadrupol energy correction           -0.013943 eV
 added-field ion interaction          0.363484 eV  (added to PSCEN)


 Free energy of the ion-electron system (eV)
  ---------------------------------------------------
  alpha Z        PSCENC =       107.30272411
  Ewald energy   TEWEN  =     39270.96550264
  -Hartree energ DENC   =    -48260.24487944
  -exchange      EXHF   =       568.38908907
  -V(xc)+E(xc)   XCENC  =       651.88847949
  PAW double counting   =     27487.82295379   -27516.17299978
  entropy T*S    EENTRO =        -0.00000000
  eigenvalues    EBANDS =     -3385.85405596
  atomic energy  EATOM  =     10467.44249161
  ---------------------------------------------------
  free energy    TOTEN  =      -608.46069446 eV

  energy without entropy =     -608.46069446  energy(sigma->0) =     -608.46069446
  exchange ACFDT corr.  =        -0.00000000  see jH, gK, PRB 81, 115126


--------------------------------------------------------------------------------------------------------




--------------------------------------- Iteration      1(  14)  ---------------------------------------


    POTLOK:  cpu time    1.3982: real time    1.3983
    SETDIJ:  cpu time    2.0791: real time    2.0791
    TRIAL :  cpu time  530.7352: real time  530.9619
    CORREC:  cpu time    0.0006: real time    0.0006
    CHARGE:  cpu time    1.6852: real time    1.6852
    --------------------------------------------
      LOOP:  cpu time  535.9014: real time  536.1285

 eigenvalue-minimisations  :     0
 total energy-change (2. order) :-0.3585665E-02  (-0.2928225E-02)
 number of electron     246.9999998 magnetization       3.0000000
 augmentation part       12.8502159 magnetization       2.1209438

 DIPCOR: dipole corrections for dipol
 direction  3 min pos     1,
 dipolmoment          -0.000104     -0.000323      0.698425 electrons x Angstroem
 Tr[quadrupol]     -6908.918306

 energy correction for charged system         0.000000 eV
 dipol+quadrupol energy correction           -0.013949 eV
 added-field ion interaction          0.363563 eV  (added to PSCEN)


 Free energy of the ion-electron system (eV)
  ---------------------------------------------------
  alpha Z        PSCENC =       107.30279719
  Ewald energy   TEWEN  =     39270.96550264
  -Hartree energ DENC   =    -48260.22668306
  -exchange      EXHF   =       568.40880177
  -V(xc)+E(xc)   XCENC  =       651.89833921
  PAW double counting   =     27489.20239463   -27517.56751908
  entropy T*S    EENTRO =        -0.00000000
  eigenvalues    EBANDS =     -3385.89040503
  atomic energy  EATOM  =     10467.44249161
  ---------------------------------------------------
  free energy    TOTEN  =      -608.46428012 eV

  energy without entropy =     -608.46428012  energy(sigma->0) =     -608.46428012
  exchange ACFDT corr.  =        -0.00000000  see jH, gK, PRB 81, 115126


--------------------------------------------------------------------------------------------------------




--------------------------------------- Iteration      1(  15)  ---------------------------------------


    POTLOK:  cpu time    1.4068: real time    1.4068
    SETDIJ:  cpu time    2.0810: real time    2.0811
    TRIAL :  cpu time  530.0349: real time  530.2421
    CORREC:  cpu time    0.0006: real time    0.0006
    CHARGE:  cpu time    1.6807: real time    1.6810
    --------------------------------------------
      LOOP:  cpu time  535.2067: real time  535.4142

 eigenvalue-minimisations  :     0
 total energy-change (2. order) :-0.2712880E-02  (-0.2225056E-02)
 number of electron     246.9999998 magnetization       3.0000000
 augmentation part       12.8509459 magnetization       2.1249755

 DIPCOR: dipole corrections for dipol
 direction  3 min pos     1,
 dipolmoment          -0.000104     -0.000323      0.698252 electrons x Angstroem
 Tr[quadrupol]     -6908.917617

 energy correction for charged system         0.000000 eV
 dipol+quadrupol energy correction           -0.013942 eV
 added-field ion interaction          0.363473 eV  (added to PSCEN)


 Free energy of the ion-electron system (eV)
  ---------------------------------------------------
  alpha Z        PSCENC =       107.30271418
  Ewald energy   TEWEN  =     39270.96550264
  -Hartree energ DENC   =    -48260.23281355
  -exchange      EXHF   =       568.42605070
  -V(xc)+E(xc)   XCENC  =       651.90742914
  PAW double counting   =     27490.63214017   -27519.01115660
  entropy T*S    EENTRO =        -0.00000000
  eigenvalues    EBANDS =     -3385.89935130
  atomic energy  EATOM  =     10467.44249161
  ---------------------------------------------------
  free energy    TOTEN  =      -608.46699300 eV

  energy without entropy =     -608.46699300  energy(sigma->0) =     -608.46699300
  exchange ACFDT corr.  =        -0.00000000  see jH, gK, PRB 81, 115126


--------------------------------------------------------------------------------------------------------




--------------------------------------- Iteration      1(  16)  ---------------------------------------


    POTLOK:  cpu time    1.3970: real time    1.3970
    SETDIJ:  cpu time    2.0768: real time    2.0769
    TRIAL :  cpu time  530.2685: real time  530.4796
    CORREC:  cpu time    0.0006: real time    0.0009
    CHARGE:  cpu time    1.6801: real time    1.6801
    --------------------------------------------
      LOOP:  cpu time  535.4264: real time  535.6379

 eigenvalue-minimisations  :     0
 total energy-change (2. order) :-0.2071539E-02  (-0.1708189E-02)
 number of electron     246.9999998 magnetization       3.0000000
 augmentation part       12.8514159 magnetization       2.1285333

 DIPCOR: dipole corrections for dipol
 direction  3 min pos     1,
 dipolmoment          -0.000104     -0.000323      0.697930 electrons x Angstroem
 Tr[quadrupol]     -6908.917115

 energy correction for charged system         0.000000 eV
 dipol+quadrupol energy correction           -0.013929 eV
 added-field ion interaction          0.363305 eV  (added to PSCEN)


 Free energy of the ion-electron system (eV)
  ---------------------------------------------------
  alpha Z        PSCENC =       107.30255958
  Ewald energy   TEWEN  =     39270.96550264
  -Hartree energ DENC   =    -48260.24053404
  -exchange      EXHF   =       568.44087346
  -V(xc)+E(xc)   XCENC  =       651.91522967
  PAW double counting   =     27492.35979515   -27520.75143973
  entropy T*S    EENTRO =        -0.00000000
  eigenvalues    EBANDS =     -3385.90354290
  atomic energy  EATOM  =     10467.44249161
  ---------------------------------------------------
  free energy    TOTEN  =      -608.46906454 eV

  energy without entropy =     -608.46906454  energy(sigma->0) =     -608.46906454
  exchange ACFDT corr.  =        -0.00000000  see jH, gK, PRB 81, 115126


--------------------------------------------------------------------------------------------------------




--------------------------------------- Iteration      1(  17)  ---------------------------------------


    POTLOK:  cpu time    1.3939: real time    1.3941
    SETDIJ:  cpu time    2.0800: real time    2.0843
    TRIAL :  cpu time  529.9188: real time  530.1186
    CORREC:  cpu time    0.0006: real time    0.0009
    CHARGE:  cpu time    1.6793: real time    1.6793
    --------------------------------------------
      LOOP:  cpu time  535.0754: real time  535.2800

 eigenvalue-minimisations  :     0
 total energy-change (2. order) :-0.1596707E-02  (-0.1324481E-02)
 number of electron     246.9999998 magnetization       3.0000000
 augmentation part       12.8517414 magnetization       2.1316847

 DIPCOR: dipole corrections for dipol
 direction  3 min pos     1,
 dipolmoment          -0.000104     -0.000323      0.697652 electrons x Angstroem
 Tr[quadrupol]     -6908.916744

 energy correction for charged system         0.000000 eV
 dipol+quadrupol energy correction           -0.013918 eV
 added-field ion interaction          0.363160 eV  (added to PSCEN)


 Free energy of the ion-electron system (eV)
  ---------------------------------------------------
  alpha Z        PSCENC =       107.30242572
  Ewald energy   TEWEN  =     39270.96550264
  -Hartree energ DENC   =    -48260.24304170
  -exchange      EXHF   =       568.45356616
  -V(xc)+E(xc)   XCENC  =       651.92179007
  PAW double counting   =     27494.19681963   -27522.59933038
  entropy T*S    EENTRO =        -0.00000000
  eigenvalues    EBANDS =     -3385.91088501
  atomic energy  EATOM  =     10467.44249161
  ---------------------------------------------------
  free energy    TOTEN  =      -608.47066125 eV

  energy without entropy =     -608.47066125  energy(sigma->0) =     -608.47066125
  exchange ACFDT corr.  =        -0.00000000  see jH, gK, PRB 81, 115126


--------------------------------------------------------------------------------------------------------




--------------------------------------- Iteration      1(  18)  ---------------------------------------


    POTLOK:  cpu time    1.3969: real time    1.3969
    SETDIJ:  cpu time    2.0842: real time    2.0843
    TRIAL :  cpu time  529.9097: real time  530.0983
    CORREC:  cpu time    0.0006: real time    0.0009
    CHARGE:  cpu time    1.6796: real time    1.6796
    --------------------------------------------
      LOOP:  cpu time  535.0741: real time  535.2663

 eigenvalue-minimisations  :     0
 total energy-change (2. order) :-0.1242301E-02  (-0.1037496E-02)
 number of electron     246.9999998 magnetization       3.0000000
 augmentation part       12.8520027 magnetization       2.1344846

 DIPCOR: dipole corrections for dipol
 direction  3 min pos     1,
 dipolmoment          -0.000104     -0.000322      0.697476 electrons x Angstroem
 Tr[quadrupol]     -6908.916423

 energy correction for charged system         0.000000 eV
 dipol+quadrupol energy correction           -0.013911 eV
 added-field ion interaction          0.363069 eV  (added to PSCEN)


 Free energy of the ion-electron system (eV)
  ---------------------------------------------------
  alpha Z        PSCENC =       107.30234134
  Ewald energy   TEWEN  =     39270.96550264
  -Hartree energ DENC   =    -48260.24294810
  -exchange      EXHF   =       568.46454706
  -V(xc)+E(xc)   XCENC  =       651.92747330
  PAW double counting   =     27495.82888448   -27524.24039353
  entropy T*S    EENTRO =        -0.00000000
  eigenvalues    EBANDS =     -3385.91980236
  atomic energy  EATOM  =     10467.44249161
  ---------------------------------------------------
[...]
  augment    42.85200    45.70912    45.52151     0.00004    -2.00221    -0.00041
  Kinetic  3648.54645  3708.49429  4136.85075     0.00385    -5.75612    -0.00585
  Fock     -342.58798  -343.77139  -319.26930    -0.00016     0.98357    -0.00017
  -------------------------------------------------------------------------------------
  Total     -46.64399   -41.49520    -0.99279     0.00305    -0.51285    -0.00044
  in kB     -23.52374   -20.92707    -0.50069     0.00154    -0.25864    -0.00022
  external pressure =      -14.98 kB  Pullay stress =        0.00 kB


 VOLUME and BASIS-vectors are now :
 -----------------------------------------------------------------------------
  energy-cutoff  :      500.00
  volume of cell :     3176.87
      direct lattice vectors                 reciprocal lattice vectors
    12.744672858 -0.000318525  0.000122103     0.078464156 -0.000001728  0.000011669
     0.000276920 12.519747442 -0.008176983     0.000001996  0.079873840  0.000036925
    -0.002961124 -0.009204245 19.910209607    -0.000000480  0.000032804  0.050225503

  length of vectors
    12.744672863 12.519750115 19.910211955     0.078464157  0.079873848  0.050225514


 FORCES acting on ions:
    Electron-Ion                     Ewald-Force                    Non-Local-Force
 -----------------------------------------------------------------------------------------------
   0.522E+01 -.431E+01 -.137E+02   -.541E+01 0.483E+01 0.138E+02   0.774E-01 -.567E+00 -.612E-01
   -.246E+01 -.320E+01 -.132E+02   0.239E+01 0.351E+01 0.133E+02   -.373E-02 -.233E+00 -.426E-01
   0.108E+02 -.371E+01 -.129E+02   -.108E+02 0.379E+01 0.129E+02   0.112E+00 -.123E+00 -.269E-01
   0.135E+02 -.363E+01 -.179E+02   -.134E+02 0.424E+01 0.179E+02   -.336E-01 -.478E+00 0.361E-02
   0.614E+01 -.495E+01 -.190E+02   -.563E+01 0.568E+01 0.191E+02   -.459E+00 -.753E+00 -.128E-01
   -.547E+00 -.230E+01 -.162E+02   0.449E+00 0.241E+01 0.163E+02   -.114E-01 -.170E+00 -.104E+00
   0.696E+01 -.210E+01 -.144E+02   -.667E+01 0.232E+01 0.144E+02   -.282E+00 -.196E+00 0.140E-01
   0.138E+02 -.250E+00 -.259E+02   -.121E+02 0.396E+00 0.257E+02   -.149E+01 -.245E+00 0.219E+00
   0.112E+02 0.857E+01 -.186E+02   -.107E+02 -.882E+01 0.189E+02   -.727E+00 0.348E+00 -.300E+00
   0.401E+01 0.416E+01 -.607E+01   -.415E+01 -.414E+01 0.602E+01   0.141E+00 0.404E-01 0.437E-01
   0.106E+02 0.307E+01 -.135E+02   -.101E+02 -.286E+01 0.136E+02   -.329E+00 -.184E+00 -.991E-01
   0.640E+02 0.109E+02 0.340E+01   -.663E+02 -.114E+02 -.253E+01   0.244E+01 0.336E+00 -.858E+00
   0.239E+02 0.204E+01 0.490E+01   -.239E+02 -.315E+01 -.508E+01   0.939E-02 0.102E+01 0.187E+00
   0.272E+01 0.245E+01 -.111E+02   -.285E+01 -.287E+01 0.112E+02   0.369E-01 0.385E+00 -.737E-01
   0.875E+01 0.298E+01 -.548E+01   -.871E+01 -.334E+01 0.556E+01   -.919E-01 0.304E+00 -.860E-01
   0.553E+02 0.456E+01 -.655E+01   -.590E+02 -.538E+01 0.690E+01   0.388E+01 0.767E+00 -.375E+00
   0.187E+02 -.225E+01 -.147E+02   -.193E+02 0.239E+01 0.148E+02   0.503E+00 -.500E-01 -.145E+00
   -.682E+00 -.117E+01 -.136E+02   0.656E+00 0.114E+01 0.136E+02   0.126E-01 -.102E-01 -.535E-01
   0.111E+02 -.867E-01 -.139E+02   -.115E+02 -.846E-01 0.140E+02   0.427E+00 0.212E+00 -.794E-01
   0.163E+02 -.111E+02 -.124E+02   -.166E+02 0.114E+02 0.124E+02   0.313E+00 -.346E+00 -.203E-01
   -.376E+01 -.910E+01 -.164E+02   0.360E+01 0.979E+01 0.165E+02   0.101E+00 -.680E+00 -.649E-01
   0.748E+01 0.154E+01 -.238E+02   -.739E+01 -.774E+00 0.239E+02   -.165E+00 -.732E+00 -.105E+00
   0.376E+01 -.910E+01 -.165E+02   -.360E+01 0.979E+01 0.166E+02   -.101E+00 -.680E+00 -.650E-01
   -.748E+01 0.154E+01 -.238E+02   0.739E+01 -.774E+00 0.239E+02   0.165E+00 -.732E+00 -.106E+00
   -.558E+01 0.478E+01 -.405E+02   0.589E+01 -.303E+01 0.409E+02   -.105E+00 -.148E+01 -.404E+00
   0.558E+01 0.477E+01 -.405E+02   -.589E+01 -.303E+01 0.409E+02   0.105E+00 -.148E+01 -.404E+00
   0.711E+01 -.446E+02 -.163E+02   -.817E+01 0.478E+02 0.173E+02   0.110E+01 -.302E+01 -.980E+00
   0.101E+02 -.185E+02 -.128E+02   -.993E+01 0.193E+02 0.130E+02   -.855E-01 -.816E+00 -.127E+00
   -.711E+01 -.446E+02 -.163E+02   0.817E+01 0.478E+02 0.173E+02   -.110E+01 -.302E+01 -.980E+00
   -.101E+02 -.185E+02 -.128E+02   0.993E+01 0.193E+02 0.129E+02   0.855E-01 -.816E+00 -.127E+00
   -.108E+02 -.371E+01 -.129E+02   0.108E+02 0.379E+01 0.129E+02   -.112E+00 -.123E+00 -.268E-01
   -.135E+02 -.363E+01 -.179E+02   0.134E+02 0.424E+01 0.179E+02   0.334E-01 -.478E+00 0.389E-02
   -.522E+01 -.431E+01 -.137E+02   0.541E+01 0.483E+01 0.138E+02   -.772E-01 -.567E+00 -.612E-01
   0.246E+01 -.320E+01 -.132E+02   -.239E+01 0.351E+01 0.133E+02   0.349E-02 -.234E+00 -.428E-01
   -.696E+01 -.210E+01 -.144E+02   0.667E+01 0.232E+01 0.144E+02   0.282E+00 -.196E+00 0.141E-01
   -.138E+02 -.248E+00 -.259E+02   0.121E+02 0.394E+00 0.257E+02   0.149E+01 -.245E+00 0.219E+00
   -.614E+01 -.495E+01 -.191E+02   0.563E+01 0.568E+01 0.191E+02   0.459E+00 -.753E+00 -.131E-01
   0.543E+00 -.230E+01 -.162E+02   -.445E+00 0.241E+01 0.163E+02   0.115E-01 -.171E+00 -.105E+00
   -.106E+02 0.307E+01 -.136E+02   0.101E+02 -.287E+01 0.137E+02   0.329E+00 -.184E+00 -.992E-01
   -.640E+02 0.109E+02 0.340E+01   0.663E+02 -.114E+02 -.253E+01   -.244E+01 0.336E+00 -.859E+00
   -.112E+02 0.857E+01 -.186E+02   0.107E+02 -.882E+01 0.189E+02   0.727E+00 0.348E+00 -.300E+00
   -.402E+01 0.416E+01 -.608E+01   0.416E+01 -.413E+01 0.603E+01   -.141E+00 0.407E-01 0.438E-01
   -.875E+01 0.299E+01 -.550E+01   0.871E+01 -.334E+01 0.558E+01   0.919E-01 0.304E+00 -.862E-01
   -.553E+02 0.457E+01 -.655E+01   0.590E+02 -.539E+01 0.690E+01   -.388E+01 0.767E+00 -.375E+00
   -.239E+02 0.203E+01 0.490E+01   0.239E+02 -.315E+01 -.508E+01   -.958E-02 0.102E+01 0.187E+00
   -.272E+01 0.244E+01 -.111E+02   0.285E+01 -.287E+01 0.112E+02   -.366E-01 0.385E+00 -.736E-01
   -.111E+02 -.877E-01 -.139E+02   0.115E+02 -.836E-01 0.140E+02   -.427E+00 0.212E+00 -.795E-01
   -.163E+02 -.111E+02 -.123E+02   0.166E+02 0.114E+02 0.124E+02   -.313E+00 -.346E+00 -.204E-01
   -.187E+02 -.225E+01 -.147E+02   0.193E+02 0.239E+01 0.148E+02   -.503E+00 -.497E-01 -.145E+00
   0.684E+00 -.117E+01 -.136E+02   -.658E+00 0.114E+01 0.136E+02   -.125E-01 -.103E-01 -.535E-01
   0.903E+01 -.189E+02 -.552E+02   -.509E+01 0.251E+02 0.559E+02   -.427E+01 -.640E+01 -.759E+00
   -.903E+01 -.189E+02 -.552E+02   0.509E+01 0.251E+02 0.560E+02   0.427E+01 -.640E+01 -.759E+00
   0.490E+02 0.355E+02 0.812E+02   -.342E+02 -.331E+02 -.855E+02   -.139E+02 -.158E+01 0.383E+01
   -.490E+02 0.355E+02 0.812E+02   0.342E+02 -.331E+02 -.856E+02   0.139E+02 -.158E+01 0.384E+01
   0.205E+02 0.223E+02 -.141E+02   -.915E+01 -.428E+02 0.132E+02   -.107E+02 0.193E+02 0.718E+00
   -.205E+02 0.223E+02 -.141E+02   0.914E+01 -.428E+02 0.132E+02   0.107E+02 0.193E+02 0.718E+00
   -.859E-03 0.893E+02 -.101E+03   0.880E-03 -.957E+02 0.102E+03   0.487E-03 0.554E+01 -.736E+00
   -.867E-02 -.530E+02 0.791E+03   0.931E-02 0.511E+02 -.778E+03   -.149E-03 0.159E+01 -.110E+02
 -----------------------------------------------------------------------------------------------
   -.146E-02 -.184E+02 0.121E+02   -.114E-12 -.341E-12 0.000E+00   0.449E-03 0.165E+02 -.112E+02
 
 
 POSITION                                       TOTAL-FORCE (eV/Angst)
 -----------------------------------------------------------------------------------
      2.80926     12.51297     10.02975        -0.113500     -0.080696      0.002973
      0.69869      1.25374     10.05400        -0.084457      0.058647     -0.002521
      1.39377     12.51176     10.03486         0.133525     -0.048474     -0.003113
      3.51751      1.23670     10.06463         0.094847      0.107767      0.007033
      2.84074      2.50029     10.06275         0.021829     -0.060544     -0.005777
      0.70295      3.76017     10.03831        -0.115422     -0.068931     -0.013442
      1.41215      2.50625     10.05322        -0.002900      0.015396     -0.003446
      3.59252      3.74153     10.04755         0.207839     -0.114035     -0.007163
      2.86406      4.99765      9.96941        -0.205361      0.118241     -0.029431
      0.70913      6.26432      9.95991         0.003843      0.071267     -0.003984
      1.43604      5.01189      9.99525         0.183008      0.012150     -0.005117
      3.60182      6.24858      9.79497         0.287860     -0.085786     -0.034566
      2.88116      7.51438      9.84628        -0.000715     -0.049974      0.017268
      0.70444      8.74690      9.97031        -0.096586     -0.017109     -0.021289
      1.44037      7.50781      9.93100        -0.057485     -0.033931     -0.011138
      3.58748      8.78641      9.85566         0.329450     -0.006277     -0.043103
      2.83194     10.01615      9.95805        -0.050151      0.088054     -0.013826
      0.69935     11.25442     10.02066        -0.022043     -0.038837     -0.010613
      1.40697     10.00239      9.99030         0.057632      0.052612     -0.014259
      3.51858     11.26924      9.98523        -0.026890     -0.042863     -0.002448
      7.06961     12.49946     10.02286        -0.050024     -0.020445      0.018238
      4.93348      1.20708     10.08015        -0.086083      0.006930      0.006106
      5.65260     12.49950     10.02289         0.050058     -0.020779      0.018155
      7.78823      1.20701     10.08014         0.085774      0.006930      0.006070
      7.07650      2.41924     10.12124         0.201748      0.194083     -0.026742
      5.64527      2.41928     10.12123        -0.201528      0.193945     -0.026894
      7.08612     10.04472      9.87005         0.117953     -0.002496     -0.000345
      4.94334     11.27643      9.96352         0.087898     -0.068618      0.005687
      5.63595     10.04475      9.87006        -0.117640     -0.002174     -0.000254
      7.77880     11.27635      9.96347        -0.087924     -0.068673      0.006017
     11.32842     12.51152     10.03493        -0.133642     -0.048936     -0.003016
      9.20420      1.23655     10.06464        -0.094858      0.107769      0.007265
      9.91294     12.51278     10.02976         0.113658     -0.080684      0.003043
     12.02303      1.25347     10.05411         0.084255      0.058403     -0.002695
     11.30963      2.50601     10.05334         0.002732      0.015254     -0.003448
      9.12932      3.74140     10.04765        -0.208093     -0.114440     -0.007236
      9.88103      2.50012     10.06284        -0.021955     -0.060469     -0.005976
     12.01887      3.75989     10.03846         0.115745     -0.069134     -0.013585
     11.28584      5.01164      9.99541        -0.182737      0.011996     -0.005359
      9.12016      6.24843      9.79500        -0.288417     -0.086093     -0.034708
      9.85784      4.99747      9.96952         0.204855      0.118086     -0.029508
     12.01279      6.26403      9.96005        -0.003398      0.071671     -0.004015
     11.28161      7.50755      9.93113         0.057643     -0.033835     -0.011296
      9.13455      8.78626      9.85570        -0.329675     -0.006199     -0.043278
      9.84084      7.51420      9.84636         0.000265     -0.049838      0.017346
     12.01757      8.74661      9.97043         0.097033     -0.016565     -0.021263
     11.31510     10.00213      9.99040        -0.057520      0.052618     -0.014375
      9.20355     11.26908      9.98521         0.027369     -0.042316     -0.002418
      9.89014     10.01596      9.95808         0.050092      0.088397     -0.013601
     12.02278     11.25414     10.02077         0.022047     -0.038777     -0.010678
      5.01550      3.68538     10.10591        -0.538616     -0.603313     -0.032118
      7.70634      3.68530     10.10598         0.538665     -0.603119     -0.032252
      4.92289      6.22976      9.55889        -0.310183      0.641559     -0.218819
      7.79911      6.22966      9.55879         0.309616      0.641645     -0.218500
      4.95973      8.84970      9.76748        -0.268063      0.511737     -0.043801
      7.76231      8.84963      9.76749         0.267673      0.511352     -0.043790
      6.36096      5.08094      9.92653         0.000465     -0.859922      0.248004
      6.36099      7.47606      8.85650         0.000491     -0.212227      0.732001
 -----------------------------------------------------------------------------------
    total drift:                               -0.000999     -0.025602     -0.004711


--------------------------------------------------------------------------------------------------------



  FREE ENERGIE OF THE ION-ELECTRON SYSTEM (eV)
  ---------------------------------------------------
  free  energy   TOTEN  =      -608.47743785 eV

  energy  without entropy=     -608.47743785  energy(sigma->0) =     -608.47743785
 


--------------------------------------------------------------------------------------------------------


    POTLOK:  cpu time    3.4681: real time    3.4681


--------------------------------------------------------------------------------------------------------


 stress matrix after NEB project (eV)
    -46.64399      0.00305     -0.00044
      0.00305    -41.49520     -0.51135
     -0.00044     -0.51285     -0.99279
  FORCES: max atom, RMS     0.894970    0.312915
  FORCE total and by dimension    2.383090    0.859922
  Stress total and by dimension   62.442162   46.643988
 writing wavefunctions
     LOOP+:  cpu time24718.9490: real time24728.0670
    4ORBIT:  cpu time    0.0000: real time    0.0000
 


 total charge     
 
# of ion       s       p       d       tot
------------------------------------------
    1        0.867   1.775   0.000   2.642
    2        0.863   1.758   0.000   2.621
    3        0.866   1.762   0.000   2.628
    4        0.867   1.773   0.000   2.640
    5        0.863   1.749   0.000   2.612
    6        0.861   1.745   0.000   2.606
    7        0.863   1.748   0.000   2.611
    8        0.859   1.730   0.000   2.589
    9        0.860   1.737   0.000   2.597
   10        0.856   1.741   0.000   2.597
   11        0.860   1.734   0.000   2.595
   12        0.859   1.700   0.000   2.558
   13        0.853   1.744   0.000   2.597
   14        0.861   1.750   0.000   2.612
   15        0.858   1.737   0.000   2.595
   16        0.855   1.699   0.000   2.554
   17        0.864   1.765   0.000   2.629
   18        0.864   1.762   0.000   2.626
   19        0.863   1.757   0.000   2.620
   20        0.868   1.762   0.000   2.629
   21        0.870   1.791   0.000   2.662
   22        0.875   1.796   0.000   2.671
   23        0.870   1.791   0.000   2.662
   24        0.875   1.796   0.000   2.671
   25        0.883   1.780   0.000   2.663
   26        0.883   1.780   0.000   2.663
   27        0.861   1.748   0.000   2.609
   28        0.872   1.794   0.000   2.666
   29        0.861   1.748   0.000   2.609
   30        0.872   1.794   0.000   2.666
   31        0.866   1.762   0.000   2.628
   32        0.867   1.773   0.000   2.640
   33        0.867   1.774   0.000   2.642
   34        0.863   1.758   0.000   2.621
   35        0.863   1.748   0.000   2.611
   36        0.859   1.730   0.000   2.589
   37        0.863   1.749   0.000   2.612
   38        0.861   1.745   0.000   2.606
   39        0.860   1.734   0.000   2.595
   40        0.859   1.700   0.000   2.558
   41        0.860   1.737   0.000   2.597
   42        0.856   1.741   0.000   2.597
   43        0.858   1.737   0.000   2.596
   44        0.855   1.699   0.000   2.554
   45        0.853   1.744   0.000   2.597
   46        0.861   1.750   0.000   2.612
   47        0.863   1.757   0.000   2.620
   48        0.868   1.762   0.000   2.629
   49        0.864   1.765   0.000   2.629
   50        0.864   1.762   0.000   2.626
   51        0.876   1.669   0.000   2.545
   52        0.876   1.669   0.000   2.545
   53        1.246   2.615   0.000   3.861
   54        1.246   2.615   0.000   3.861
   55        1.237   2.674   0.000   3.912
   56        1.237   2.674   0.000   3.912
   57        0.519   0.762   6.129   7.410
   58        2.212   6.213   1.218   9.643
--------------------------------------------------
tot         52.634 108.562   7.348 168.544
 


 magnetization (x)
 
# of ion       s       p       d       tot
------------------------------------------
    1       -0.000  -0.001   0.000  -0.001
    2       -0.000  -0.000   0.000  -0.000
    3        0.000   0.001   0.000   0.001
    4        0.000   0.006   0.000   0.006
    5       -0.001  -0.003   0.000  -0.003
    6        0.000   0.001   0.000   0.001
    7       -0.000   0.000   0.000   0.000
    8        0.001   0.005   0.000   0.005
    9        0.001   0.002   0.000   0.003
   10        0.000   0.002   0.000   0.002
   11        0.000   0.001   0.000   0.002
   12        0.000  -0.005   0.000  -0.005
   13        0.000   0.004   0.000   0.004
   14        0.000   0.001   0.000   0.001
   15       -0.000   0.001   0.000   0.001
   16       -0.000  -0.000   0.000  -0.000
   17       -0.000   0.000   0.000  -0.000
   18        0.000   0.000   0.000   0.000
   19       -0.000   0.000   0.000   0.000
   20        0.000   0.004   0.000   0.004
   21        0.000   0.001   0.000   0.001
   22       -0.001  -0.005   0.000  -0.005
   23        0.000   0.001   0.000   0.001
   24       -0.001  -0.005   0.000  -0.005
   25        0.001   0.009   0.000   0.010
   26        0.001   0.009   0.000   0.010
   27        0.000   0.002   0.000   0.002
   28        0.000   0.001   0.000   0.001
   29        0.000   0.002   0.000   0.002
   30        0.000   0.001   0.000   0.001
   31        0.000   0.001   0.000   0.001
   32        0.000   0.006   0.000   0.006
   33       -0.000  -0.001   0.000  -0.001
   34       -0.000  -0.000   0.000  -0.000
   35       -0.000   0.000   0.000   0.000
   36        0.001   0.005   0.000   0.005
   37       -0.001  -0.003   0.000  -0.003
   38        0.000   0.001   0.000   0.001
   39        0.000   0.001   0.000   0.002
   40        0.000  -0.005   0.000  -0.005
   41        0.001   0.002   0.000   0.003
   42        0.000   0.002   0.000   0.002
   43       -0.000   0.001   0.000   0.001
   44       -0.000  -0.000   0.000  -0.000
   45        0.000   0.004   0.000   0.004
   46        0.000   0.001   0.000   0.001
   47       -0.000   0.000   0.000   0.000
   48        0.000   0.004   0.000   0.004
   49       -0.000   0.000   0.000  -0.000
   50        0.000   0.000   0.000   0.000
   51       -0.012  -0.049   0.000  -0.061
   52       -0.012  -0.049   0.000  -0.061
   53       -0.002   0.003   0.000   0.001
   54       -0.002   0.003   0.000   0.001
   55        0.000   0.006   0.000   0.006
   56        0.000   0.006   0.000   0.006
   57        0.057   0.030   2.715   2.802
   58       -0.001  -0.000   0.047   0.045
--------------------------------------------------
tot          0.032   0.005   2.761   2.798
 

 total amount of memory used by VASP MPI-rank0   183396. kBytes
=======================================================================

   base      :      30000. kBytes
   nonl-proj :       5339. kBytes
   fftplans  :      14250. kBytes
   grid      :      36827. kBytes
   one-center:         62. kBytes
   HF        :         23. kBytes
   nonlr-proj:      18733. kBytes
   wavefun   :      78162. kBytes
 
  
  
 General timing and accounting informations for this job:
 ========================================================
  
                  Total CPU time used (sec):    24811.736
                            User time (sec):    24773.184
                          System time (sec):       38.552
                         Elapsed time (sec):    24821.991
  
                   Maximum memory used (kb):      430852.
                   Average memory used (kb):           0.
  
                          Minor page faults:       195890
                          Major page faults:            0
                 Voluntary context switches:         1123
