 vasp.5.4.4.18Apr17-6-g9f103f2a35 (build Feb 25 2019 10:51:38) complex          
  
 executed on             LinuxIFC date 2021.08.09  06:46:14
 running on   32 total cores
 distrk:  each k-point on   32 cores,    1 groups
 distr:  one band on NCORES_PER_BAND=  32 cores,    1 groups


--------------------------------------------------------------------------------------------------------


 INCAR:
 POTCAR:    PAW_PBE C 08Apr2002                   
 POTCAR:    PAW_PBE N 08Apr2002                   
 POTCAR:    PAW_PBE Fe 06Sep2000                  
 POTCAR:    PAW_PBE V 08Apr2002                   

 ----------------------------------------------------------------------------- 
|                                                                             |
|           W    W    AA    RRRRR   N    N  II  N    N   GGGG   !!!           |
|           W    W   A  A   R    R  NN   N  II  NN   N  G    G  !!!           |
|           W    W  A    A  R    R  N N  N  II  N N  N  G       !!!           |
|           W WW W  AAAAAA  RRRRR   N  N N  II  N  N N  G  GGG   !            |
|           WW  WW  A    A  R   R   N   NN  II  N   NN  G    G                |
|           W    W  A    A  R    R  N    N  II  N    N   GGGG   !!!           |
|                                                                             |
|      For optimal performance we recommend to set                            |
|        NCORE= 4 - approx SQRT( number of cores)                             |
|      NCORE specifies how many cores store one orbital (NPAR=cpu/NCORE).     |
|      This setting can  greatly improve the performance of VASP for DFT.     |
|      The default,   NCORE=1            might be grossly inefficient         |
|      on modern multi-core architectures or massively parallel machines.     |
|      Do your own testing !!!!                                               |
|      Unfortunately you need to use the default for GW and RPA calculations. |
|      (for HF NCORE is supported but not extensively tested yet)             |
|                                                                             |
 ----------------------------------------------------------------------------- 

 POTCAR:    PAW_PBE C 08Apr2002                   
   VRHFIN =C: s2p2                                                              
   LEXCH  = PE                                                                  
   EATOM  =   147.1560 eV,   10.8157 Ry                                         
                                                                                
   TITEL  = PAW_PBE C 08Apr2002                                                 
   LULTRA =        F    use ultrasoft PP ?                                      
   IUNSCR =        1    unscreen: 0-lin 1-nonlin 2-no                           
   RPACOR =    1.200    partial core radius                                     
   POMASS =   12.011; ZVAL   =    4.000    mass and valenz                      
   RCORE  =    1.500    outmost cutoff radius                                   
   RWIGS  =    1.630; RWIGS  =    0.863    wigner-seitz radius (au A)           
   ENMAX  =  400.000; ENMIN  =  300.000 eV                                      
   ICORE  =        2    local potential                                         
   LCOR   =        T    correct aug charges                                     
   LPAW   =        T    paw PP                                                  
   EAUG   =  644.873                                                            
   DEXC   =    0.000                                                            
   RMAX   =    1.529    core radius for proj-oper                               
   RAUG   =    1.300    factor for augmentation sphere                          
   RDEP   =    1.501    radius for radial grids                                 
   RDEPT  =    1.300    core radius for aug-charge                              
                                                                                
   Atomic configuration                                                         
    4 entries                                                                   
     n  l   j            E        occ.                                          
     1  0  0.50      -273.3789   2.0000                                         
     2  0  0.50       -13.7508   2.0000                                         
     2  1  0.50        -5.2854   2.0000                                         
     3  2  1.50        -5.4423   0.0000                                         
   Description                                                                  
     l       E           TYP  RCUT    TYP  RCUT                                 
     0    -13.7508458     23  1.200                                             
     0     -8.2022199     23  1.200                                             
     1     -5.2854383     23  1.500                                             
     1     34.0145650     23  1.500                                             
     2     -5.4423304      7  1.500                                             
  local pseudopotential read in
  partial core-charges read in
  partial kinetic energy density read in
  atomic valenz-charges read in
  non local Contribution for L=           0  read in
    real space projection operators read in
  non local Contribution for L=           0  read in
    real space projection operators read in
  non local Contribution for L=           1  read in
    real space projection operators read in
  non local Contribution for L=           1  read in
    real space projection operators read in
    PAW grid and wavefunctions read in
 
   number of l-projection  operators is LMAX  =           4
   number of lm-projection operators is LMMAX =           8
 
 POTCAR:    PAW_PBE N 08Apr2002                   
   VRHFIN =N: s2p3                                                              
   LEXCH  = PE                                                                  
   EATOM  =   264.5486 eV,   19.4438 Ry                                         
                                                                                
   TITEL  = PAW_PBE N 08Apr2002                                                 
   LULTRA =        F    use ultrasoft PP ?                                      
   IUNSCR =        1    unscreen: 0-lin 1-nonlin 2-no                           
   RPACOR =    1.200    partial core radius                                     
   POMASS =   14.001; ZVAL   =    5.000    mass and valenz                      
   RCORE  =    1.500    outmost cutoff radius                                   
   RWIGS  =    1.400; RWIGS  =    0.741    wigner-seitz radius (au A)           
   ENMAX  =  400.000; ENMIN  =  300.000 eV                                      
   ICORE  =        2    local potential                                         
   LCOR   =        T    correct aug charges                                     
   LPAW   =        T    paw PP                                                  
   EAUG   =  627.112                                                            
   DEXC   =    0.000                                                            
   RMAX   =    1.529    core radius for proj-oper                               
   RAUG   =    1.300    factor for augmentation sphere                          
   RDEP   =    1.514    radius for radial grids                                 
   RDEPT  =    1.338    core radius for aug-charge                              
                                                                                
   Atomic configuration                                                         
    4 entries                                                                   
     n  l   j            E        occ.                                          
     1  0  0.50      -384.7179   2.0000                                         
     2  0  0.50       -18.5828   2.0000                                         
     2  1  0.50        -7.0898   3.0000                                         
     3  2  1.50        -6.8029   0.0000                                         
   Description                                                                  
     l       E           TYP  RCUT    TYP  RCUT                                 
     0    -18.5828119     23  1.200                                             
     0    -13.5018863     23  1.200                                             
     1     -7.0897853     23  1.500                                             
     1      9.5240782     23  1.500                                             
     2     -6.8029130      7  1.500                                             
  local pseudopotential read in
  partial core-charges read in
  partial kinetic energy density read in
  atomic valenz-charges read in
  non local Contribution for L=           0  read in
    real space projection operators read in
  non local Contribution for L=           0  read in
    real space projection operators read in
  non local Contribution for L=           1  read in
    real space projection operators read in
  non local Contribution for L=           1  read in
    real space projection operators read in
    PAW grid and wavefunctions read in
 
   number of l-projection  operators is LMAX  =           4
   number of lm-projection operators is LMMAX =           8
 
 POTCAR:    PAW_PBE Fe 06Sep2000                  
   VRHFIN =Fe:  d7 s1                                                           
   LEXCH  = PE                                                                  
   EATOM  =   594.3153 eV,   43.6809 Ry                                         
                                                                                
   TITEL  = PAW_PBE Fe 06Sep2000                                                
   LULTRA =        F    use ultrasoft PP ?                                      
   IUNSCR =        1    unscreen: 0-lin 1-nonlin 2-no                           
   RPACOR =    2.000    partial core radius                                     
   POMASS =   55.847; ZVAL   =    8.000    mass and valenz                      
   RCORE  =    2.300    outmost cutoff radius                                   
   RWIGS  =    2.460; RWIGS  =    1.302    wigner-seitz radius (au A)           
   ENMAX  =  267.882; ENMIN  =  200.911 eV                                      
   RCLOC  =    1.701    cutoff for local pot                                    
   LCOR   =        T    correct aug charges                                     
   LPAW   =        T    paw PP                                                  
   EAUG   =  511.368                                                            
   DEXC   =    0.000                                                            
   RMAX   =    2.356    core radius for proj-oper                               
   RAUG   =    1.300    factor for augmentation sphere                          
   RDEP   =    2.442    radius for radial grids                                 
   RDEPT  =    1.890    core radius for aug-charge                              
                                                                                
   Atomic configuration                                                         
    9 entries                                                                   
     n  l   j            E        occ.                                          
     1  0  0.50     -6993.8440   2.0000                                         
     2  0  0.50      -814.6047   2.0000                                         
     2  1  1.50      -693.3689   6.0000                                         
     3  0  0.50       -89.4732   2.0000                                         
     3  1  1.50       -55.6373   6.0000                                         
     3  2  2.50        -3.8151   7.0000                                         
     4  0  0.50        -4.2551   1.0000                                         
     4  1  1.50        -3.4015   0.0000                                         
     4  3  2.50        -1.3606   0.0000                                         
   Description                                                                  
     l       E           TYP  RCUT    TYP  RCUT                                 
     2     -3.8151135     23  2.300                                             
     2     -5.1756961     23  2.300                                             
     0     -4.2550963     23  2.300                                             
     0      7.2035603     23  2.300                                             
     1     -2.7211652     23  2.300                                             
     1     18.4316424     23  2.300                                             
  local pseudopotential read in
  partial core-charges read in
  partial kinetic energy density read in
  atomic valenz-charges read in
  non local Contribution for L=           2  read in
    real space projection operators read in
  non local Contribution for L=           2  read in
    real space projection operators read in
  non local Contribution for L=           0  read in
    real space projection operators read in
  non local Contribution for L=           0  read in
    real space projection operators read in
  non local Contribution for L=           1  read in
    real space projection operators read in
  non local Contribution for L=           1  read in
    real space projection operators read in
    PAW grid and wavefunctions read in
 
   number of l-projection  operators is LMAX  =           6
   number of lm-projection operators is LMMAX =          18
 
 POTCAR:    PAW_PBE V 08Apr2002                   
   VRHFIN =V: p6 d4 s1                                                          
   LEXCH  = PE                                                                  
   EATOM  =   170.8679 eV,   12.5584 Ry                                         
                                                                                
   TITEL  = PAW_PBE V 08Apr2002                                                 
   LULTRA =        F    use ultrasoft PP ?                                      
   IUNSCR =        1    unscreen: 0-lin 1-nonlin 2-no                           
   RPACOR =    2.000    partial core radius                                     
   POMASS =   50.941; ZVAL   =    5.000    mass and valenz                      
   RCORE  =    2.700    outmost cutoff radius                                   
   RWIGS  =    2.500; RWIGS  =    1.323    wigner-seitz radius (au A)           
   ENMAX  =  192.543; ENMIN  =  144.408 eV                                      
   RCLOC  =    1.779    cutoff for local pot                                    
   LCOR   =        T    correct aug charges                                     
   LPAW   =        T    paw PP                                                  
   EAUG   =  358.662                                                            
   DEXC   =    0.000                                                            
   RMAX   =    2.768    core radius for proj-oper                               
   RAUG   =    1.300    factor for augmentation sphere                          
   RDEP   =    2.762    radius for radial grids                                 
   RDEPT  =    2.240    core radius for aug-charge                              
                                                                                
   Atomic configuration                                                         
    9 entries                                                                   
     n  l   j            E        occ.                                          
     1  0  0.50     -5360.7193   2.0000                                         
     2  0  0.50      -598.4546   2.0000                                         
     2  1  1.50      -499.0155   6.0000                                         
     3  0  0.50       -66.5711   2.0000                                         
     3  1  1.50       -40.5282   6.0000                                         
     3  2  2.50        -2.4291   4.0000                                         
     4  0  0.50        -3.8743   1.0000                                         
     4  1  0.50        -2.7212   0.0000                                         
     4  3  2.50        -1.3606   0.0000                                         
   Description                                                                  
     l       E           TYP  RCUT    TYP  RCUT                                 
     2     -2.4290901     23  2.700                                             
     2     -3.7896727     23  2.700                                             
     0     -3.8742752     23  2.700                                             
     0     27.2116520     23  2.700                                             
     1     -2.7211652     23  2.700                                             
     1     27.2116520     23  2.700                                             
  local pseudopotential read in
  partial core-charges read in
  partial kinetic energy density read in
  atomic valenz-charges read in
  non local Contribution for L=           2  read in
    real space projection operators read in
  non local Contribution for L=           2  read in
    real space projection operators read in
  non local Contribution for L=           0  read in
    real space projection operators read in
  non local Contribution for L=           0  read in
    real space projection operators read in
  non local Contribution for L=           1  read in
    real space projection operators read in
  non local Contribution for L=           1  read in
    real space projection operators read in
    PAW grid and wavefunctions read in
 
   number of l-projection  operators is LMAX  =           6
   number of lm-projection operators is LMMAX =          18
 

 ----------------------------------------------------------------------------- 
|                                                                             |
|  ADVICE TO THIS USER RUNNING 'VASP/VAMP'   (HEAR YOUR MASTER'S VOICE ...):  |
|                                                                             |
|      You have a (more or less) 'large supercell' and for larger cells       |
|      it might be more efficient to use real space projection opertators     |
|      So try LREAL= Auto  in the INCAR   file.                               |
|      Mind:          For very  accurate calculation you might also keep the  |
|      reciprocal projection scheme          (i.e. LREAL=.FALSE.)             |
|                                                                             |
 ----------------------------------------------------------------------------- 

  PAW_PBE C 08Apr2002                   :
 energy of atom  1       EATOM= -147.1560
 kinetic energy error for atom=    0.0076 (will be added to EATOM!!)
  PAW_PBE N 08Apr2002                   :
 energy of atom  2       EATOM= -264.5486
 kinetic energy error for atom=    0.0138 (will be added to EATOM!!)
  PAW_PBE Fe 06Sep2000                  :
 energy of atom  3       EATOM= -594.3153
 kinetic energy error for atom=    0.0026 (will be added to EATOM!!)
  PAW_PBE V 08Apr2002                   :
 energy of atom  4       EATOM= -170.8679
 kinetic energy error for atom=    0.0003 (will be added to EATOM!!)
 
 
 POSCAR:  C  N Fe  V                             
  positions in cartesian coordinates
  No initial velocities read in
 exchange correlation table for  LEXCH =        8
   RHO(1)=    0.500       N(1)  =     2000
   RHO(2)=  100.500       N(2)  =     4000

 VTST: version 3.2, (02/03/18)

 CHAIN: initializing optimizer
 
 OPT: Using VASP Conjugate-Gradient optimizer
 CHAIN: Read ICHAIN            0
 
 POSCAR:  C  N Fe  V                             
  positions in cartesian coordinates
  No initial velocities read in
 


--------------------------------------------------------------------------------------------------------


 ion  position               nearest neighbor table
   1  0.224  0.001  0.499-  18 1.44   4 1.44   3 1.46
   2  0.056  0.100  0.502-   3 1.43   7 1.43  33 1.44
   3  0.112  0.000  0.500-   2 1.43  16 1.43   1 1.46
   4  0.279  0.102  0.498-   1 1.44   5 1.45  20 1.46
   5  0.222  0.203  0.496-  50 1.43   7 1.45   4 1.45
   6  0.053  0.299  0.503-  10 1.42  37 1.43   7 1.44
   7  0.111  0.201  0.500-   2 1.43   6 1.44   5 1.45
   8  0.213  0.401  0.492-  10 1.42  50 1.42  11 1.43
   9  0.050  0.501  0.505-  41 1.41  14 1.42  10 1.43
  10  0.105  0.400  0.502-   6 1.42   8 1.42   9 1.43
  11  0.265  0.502  0.483-  56 1.34   8 1.43  12 1.43
  12  0.212  0.602  0.493-  51 1.40  14 1.41  11 1.43
  13  0.052  0.701  0.504-  14 1.41  17 1.43  45 1.43
  14  0.104  0.601  0.503-  12 1.41  13 1.41   9 1.42
  15  0.222  0.798  0.495-  51 1.43  18 1.45  17 1.45
  16  0.056  0.900  0.501-   3 1.43  17 1.43  49 1.44
  17  0.111  0.800  0.500-  16 1.43  13 1.43  15 1.45
  18  0.279  0.900  0.497-   1 1.44  28 1.45  15 1.45
  19  0.556  1.000  0.500-  22 1.43  29 1.44  21 1.44
  20  0.391  0.104  0.499-  52 1.43  21 1.45   4 1.46
  21  0.445  0.002  0.500-  19 1.44  28 1.44  20 1.45
  22  0.613  0.099  0.502-  23 1.43  19 1.43  31 1.43
  23  0.559  0.200  0.502-  52 1.43  22 1.43  24 1.45
  24  0.616  0.300  0.504-  55 1.37  35 1.42  23 1.45
  25  0.612  0.495  0.507-  55 1.39  53 1.43  39 1.44
  26  0.612  0.696  0.503-  53 1.42  43 1.44  27 1.48  58 2.60
  27  0.556  0.800  0.499-  54 1.42  29 1.44  26 1.48  58 2.59
  28  0.390  0.900  0.498-  54 1.42  21 1.44  18 1.45
  29  0.612  0.900  0.500-  47 1.44  19 1.44  27 1.44
  30  0.890  0.999  0.503-  33 1.43  49 1.43  32 1.44
  31  0.724  0.099  0.503-  36 1.42  32 1.43  22 1.43
  32  0.779  0.999  0.503-  31 1.43  47 1.43  30 1.44
  33  0.946  0.099  0.503-  30 1.43  34 1.43   2 1.44
  34  0.889  0.198  0.505-  37 1.42  36 1.43  33 1.43
  35  0.725  0.299  0.507-  24 1.42  40 1.42  36 1.43
  36  0.779  0.198  0.505-  31 1.42  34 1.43  35 1.43
  37  0.943  0.299  0.506-  34 1.42   6 1.43  38 1.43
  38  0.888  0.399  0.508-  40 1.42  41 1.42  37 1.43
  39  0.723  0.498  0.509-  40 1.43  44 1.43  25 1.44
  40  0.779  0.399  0.509-  35 1.42  38 1.42  39 1.43
  41  0.942  0.500  0.508-   9 1.41  38 1.42  42 1.43
  42  0.887  0.600  0.508-  45 1.43  41 1.43  44 1.43
  43  0.722  0.699  0.504-  44 1.43  48 1.43  26 1.44
  44  0.777  0.599  0.508-  43 1.43  42 1.43  39 1.43
  45  0.942  0.700  0.506-  46 1.42  42 1.43  13 1.43
  46  0.888  0.800  0.504-  45 1.42  48 1.43  49 1.43
  47  0.722  0.900  0.502-  32 1.43  48 1.43  29 1.44
  48  0.778  0.799  0.503-  43 1.43  47 1.43  46 1.43
  49  0.945  0.900  0.503-  30 1.43  46 1.43  16 1.44
  50  0.272  0.305  0.489-   8 1.42   5 1.43  57 1.91
  51  0.273  0.696  0.487-  12 1.40  15 1.43  58 2.15
  52  0.449  0.204  0.499-  23 1.43  20 1.43  57 1.94
  53  0.557  0.595  0.504-  26 1.42  25 1.43  58 2.01
  54  0.446  0.801  0.496-  27 1.42  28 1.42  58 2.00
  55  0.562  0.395  0.503-  24 1.37  25 1.39  57 2.03
  56  0.364  0.505  0.465-  11 1.34  58 1.96  57 2.01
  57  0.412  0.354  0.487-  50 1.91  52 1.94  56 2.01  55 2.03
  58  0.427  0.650  0.462-  56 1.96  54 2.00  53 2.01  51 2.15  27 2.59  26 2.60
 
  LATTYP: Found a triclinic cell.
 ALAT       =    26.7434590992
 B/A-ratio  =     0.4863956647
 C/A-ratio  =     0.4612904705
 COS(alpha) =     0.0045511944
 COS(beta)  =     0.4617830563
 COS(gamma) =     0.4907300569
  
  Lattice vectors:
  
 A1 = (  13.0857751401, -12.3336213991, -19.7953751355)
 A2 = (  13.0078846649,  -0.0145153594,  -0.0159674050)
 A3 = (   0.0424018838, -12.3364168712,   0.0179708766)


Analysis of symmetry for initial positions (statically):
=====================================================================
 Subroutine PRICEL returns:
 Original cell was already a primitive cell.
 

 Routine SETGRP: Setting up the symmetry group for a 
 triclinic supercell.


 Subroutine GETGRP returns: Found  1 space group operations
 (whereof  1 operations were pure point group operations)
 out of a pool of  2 trial point group operations.


The static configuration has the point symmetry C_1 .


Analysis of symmetry for dynamics (positions and initial velocities):
=====================================================================
 Subroutine PRICEL returns:
 Original cell was already a primitive cell.
 

 Routine SETGRP: Setting up the symmetry group for a 
 triclinic supercell.


 Subroutine GETGRP returns: Found  1 space group operations
 (whereof  1 operations were pure point group operations)
 out of a pool of  2 trial point group operations.


The dynamic configuration has the point symmetry C_1 .


Analysis of structural, dynamic, and magnetic symmetry:
=====================================================================
 Subroutine PRICEL returns:
 Original cell was already a primitive cell.
 

 Routine SETGRP: Setting up the symmetry group for a 
 triclinic supercell.


 Subroutine GETGRP returns: Found  1 space group operations
 (whereof  1 operations were pure point group operations)
 out of a pool of  2 trial point group operations.


The magnetic configuration has the point symmetry C_1 .


 Subroutine INISYM returns: Found  1 space group operations
 (whereof  1 operations are pure point group operations),
 and found     1 'primitive' translations

 
 
 KPOINTS: KPOINTS created by Atomic Simulation Env

Automatic generation of k-mesh.
Space group operators:
 irot       det(A)        alpha          n_x          n_y          n_z        tau_x        tau_y        tau_z
    1     1.000000     0.000001     1.000000     0.000000     0.000000     0.000000     0.000000     0.000000
 
 Subroutine IBZKPT returns following result:
 ===========================================
 
 Found      2 irreducible k-points:
 
 Following reciprocal coordinates:
            Coordinates               Weight
  0.250000  0.250000  0.000000      2.000000
 -0.250000  0.250000  0.000000      2.000000
 
 Following cartesian coordinates:
            Coordinates               Weight
  0.019242  0.020331  0.000052      2.000000
 -0.019197  0.020199 -0.000017      2.000000
 
 
 Subroutine IBZKPT_HF returns following result:
 ==============================================
 
 Found      4 k-points in 1st BZ
 the following      4 k-points will be used (e.g. in the exchange kernel)
 Following reciprocal coordinates:   # in IRBZ
  0.250000  0.250000  0.000000    0.25000000   1 t-inv F
 -0.250000  0.250000  0.000000    0.25000000   2 t-inv F
 -0.250000 -0.250000  0.000000    0.25000000   1 t-inv T
  0.250000 -0.250000  0.000000    0.25000000   2 t-inv T


--------------------------------------------------------------------------------------------------------




 Dimension of arrays:
   k-points           NKPTS =      2   k-points in BZ     NKDIM =      4   number of bands    NBANDS=    153
   number of dos      NEDOS =    301   number of ions     NIONS =     58
   non local maximal  LDIM  =      6   non local SUM 2l+1 LMDIM =     18
   total plane-waves  NPLWV = ******
   max r-space proj   IRMAX =      1   max aug-charges    IRDMAX=  23947
   dimension x,y,z NGX =    96 NGY =   90 NGZ =  144
   dimension x,y,z NGXF=   192 NGYF=  180 NGZF=  288
   support grid    NGXF=   192 NGYF=  180 NGZF=  288
   ions per type =              54   2   1   1
   NGX,Y,Z   is equivalent  to a cutoff of  12.27, 12.13, 12.09 a.u.
   NGXF,Y,Z  is equivalent  to a cutoff of  24.54, 24.26, 24.18 a.u.

 SYSTEM =  unknown system                          
 POSCAR =   C  N Fe  V                             

 Startparameter for this run:
   NWRITE =      2    write-flag & timer
   PREC   = accura    normal or accurate (medium, high low for compatibility)
   ISTART =      1    job   : 0-new  1-cont  2-samecut
   ICHARG =      0    charge: 1-file 2-atom 10-const
   ISPIN  =      2    spin polarized calculation?
   LNONCOLLINEAR =      F non collinear calculations
   LSORBIT =      F    spin-orbit coupling
   INIWAV =      1    electr: 0-lowe 1-rand  2-diag
   LASPH  =      T    aspherical Exc in radial PAW
   METAGGA=      F    non-selfconsistent MetaGGA calc.

 Electronic Relaxation 1
   ENCUT  =  500.0 eV  36.75 Ry    6.06 a.u.  23.72 22.49 36.10*2*pi/ulx,y,z
   ENINI  =  500.0     initial cutoff
   ENAUG  =  644.9 eV  augmentation charge cutoff
   NELM   =    250;   NELMIN=  2; NELMDL=  0     # of ELM steps 
   EDIFF  = 0.1E-03   stopping-criterion for ELM
   LREAL  =      F    real-space projection
   NLSPLINE    = F    spline interpolate recip. space projectors
   LCOMPAT=      F    compatible to vasp.4.4
   GGA_COMPAT  = T    GGA compatible to vasp.4.4-vasp.4.6
   LMAXPAW     = -100 max onsite density
   LMAXMIX     =    2 max onsite mixed and CHGCAR
   VOSKOWN=      0    Vosko Wilk Nusair interpolation
   ROPT   =    0.00000   0.00000   0.00000   0.00000
 Ionic relaxation
   EDIFFG = -.3E-01   stopping-criterion for IOM
   NSW    =      0    number of steps for IOM
   NBLOCK =      1;   KBLOCK =      1    inner block; outer block 
   IBRION =     -1    ionic relax: 0-MD 1-quasi-New 2-CG
   NFREE  =      1    steps in history (QN), initial steepest desc. (CG)
   ISIF   =      2    stress and relaxation
   IWAVPR =     10    prediction:  0-non 1-charg 2-wave 3-comb
   ISYM   =      3    0-nonsym 1-usesym 2-fastsym
   LCORR  =      T    Harris-Foulkes like correction to forces

   POTIM  = 0.5000    time-step for ionic-motion
   TEIN   =    0.0    initial temperature
   TEBEG  =    0.0;   TEEND  =   0.0 temperature during run
   SMASS  =  -3.00    Nose mass-parameter (am)
   estimated Nose-frequenzy (Omega)   =  0.10E-29 period in steps =****** mass=  -0.387E-26a.u.
   SCALEE = 1.0000    scale energy and forces
   NPACO  =    256;   APACO  = 16.0  distance and # of slots for P.C.
   PSTRESS=    0.0 pullay stress

  Mass of Ions in am
   POMASS =  12.01 14.00 55.85 50.94
  Ionic Valenz
   ZVAL   =   4.00  5.00  8.00  5.00
  Atomic Wigner-Seitz radii
   RWIGS  =  -1.00 -1.00 -1.00 -1.00
  virtual crystal weights 
   VCA    =   1.00  1.00  1.00  1.00
   NELECT =     239.0000    total number of electrons
   NUPDOWN=      -1.0000    fix difference up-down

 DOS related values:
   EMIN   =  10.00;   EMAX   =-10.00  energy-range for DOS
   EFERMI =   0.00
   ISMEAR =     0;   SIGMA  =   0.10  broadening in eV -4-tet -1-fermi 0-gaus

 Electronic relaxation 2 (details)
   IALGO  =     53    algorithm
   LDIAG  =      T    sub-space diagonalisation (order eigenvalues)
   LSUBROT=      F    optimize rotation matrix (better conditioning)
   TURBO    =      0    0=normal 1=particle mesh
   IRESTART =      0    0=no restart 2=restart with 2 vectors
   NREBOOT  =      0    no. of reboots
   NMIN     =      0    reboot dimension
   EREF     =   0.00    reference energy to select bands
   IMIX   =      4    mixing-type and parameters
     AMIX     =   0.40;   BMIX     =  1.00
     AMIX_MAG =   1.60;   BMIX_MAG =  1.00
     AMIN     =   0.10
     WC   =   100.;   INIMIX=   1;  MIXPRE=   1;  MAXMIX= -45

 Intra band minimization:
   WEIMIN = 0.0000     energy-eigenvalue tresh-hold
   EBREAK =  0.16E-06  absolut break condition
   DEPER  =   0.30     relativ break condition  

   TIME   =   0.20     timestep for ELM

  volume/ion in A,a.u.               =      54.77       369.63
  Fermi-wavevector in a.u.,A,eV,Ry     =   0.691100  1.305989  6.498399  0.477619
  Thomas-Fermi vector in A             =   1.772655
 
 Write flags
   LWAVE        =      T    write WAVECAR
   LDOWNSAMPLE  =      F    k-point downsampling of WAVECAR
   LCHARG       =      T    write CHGCAR
   LVTOT        =      F    write LOCPOT, total local potential
   LVHAR        =      F    write LOCPOT, Hartree potential only
   LELF         =      F    write electronic localiz. function (ELF)
   LORBIT       =     11    0 simple, 1 ext, 2 COOP (PROOUT), +10 PAW based schemes


 Dipole corrections
   LMONO  =      F    monopole corrections only (constant potential shift)
   LDIPOL =      T    correct potential (dipole corrections)
   IDIPOL =      3    1-x, 2-y, 3-z, 4-all directions 
   EPSILON=  1.0000000 bulk dielectric constant

 Exchange correlation treatment:
   GGA     =    PE    GGA type
   LEXCH   =     8    internal setting for exchange type
   VOSKOWN=      0    Vosko Wilk Nusair interpolation
   EXXOEP  =     0    0=HF, 1=EXX-LHF (local Hartree Fock) 2=EXX OEP
   LHFCALC =     T    Hartree Fock is set to
   LSYMGRAD=     F    symmetrize gradient (conserves proper symmetry)
   PRECFOCK=normal    Normal, Fast or Accurate (Low or Medium for compatibility)
   LRHFCALC=     F    long range Hartree Fock
   LRSCOR  =     F    long range correlation only (use DFT for short range part)
   LTHOMAS =     F    Thomas Fermi screening in HF
   LMODELHF=     F    short range full HF, long range fraction AEXX
   ENCUT4O =  -1.0   cutoff for four orbital integrals eV
   LMAXFOCK=     4    L truncation for augmentation on plane wave grid
   LMAXFOCKAE=  -1    L truncation for all-electron charge restoration on plane wave grid
   NMAXFOCKAE=   1    number of basis functions for all-electron charge restoration
   LFOCKAEDFT=     F  apply the AE augmentation even for DFT
   NKREDX  =     1    reduce k-point grid by
   NKREDY  =     1    reduce k-point grid by
   NKREDZ  =     1    reduce k-point grid by
   SHIFTRED=     F    shift reduced grid of Gamma
   HFKIDENT=     F    idential grid for each k-point
   ODDONLY =     F    use only odd q-grid points
   EVENONLY=     F    use only even q-grid points
   HFALPHA =   -1.0000 decay constant for conv. correction
   MCALPHA =    0.0000 extent of test-charge in conv. correction in multipole expansion
   AEXX    =    0.2500 exact exchange contribution
   HFSCREEN=    0.2000 screening length (either q_TF or 0.3 A-1)
   HFSCREENC=   0.2000 screening length for correlation (either q_TF or 0.3 A-1)
   HFRCUT  =    0.0000 spherical cutoff for potential kernel
   ALDAX   =    0.7500 LDA exchange part
   AGGAX   =    0.7500 GGA exchange part
   ALDAC   =    1.0000 LDA correlation
   AGGAC   =    1.0000 GGA correlation
   ENCUTFOCK=  -1.0 apply spherical cutoff to Coloumb kernel
   NBANDSGWLOW=     1    first orbital included in HF term
   NBLOCK_FOCK=    64    blocking factor in FOCK_ACC
 Linear response parameters
   LEPSILON=     F    determine dielectric tensor
   LRPA    =     F    only Hartree local field effects (RPA)
   LNABLA  =     F    use nabla operator in PAW spheres
   LVEL    =     F    velocity operator in full k-point grid
   LINTERFAST=   F  fast interpolation
   KINTER  =     0    interpolate to denser k-point grid
   CSHIFT  =0.1000    complex shift for real part using Kramers Kronig
   OMEGAMAX=  -1.0    maximum frequency
   DEG_THRESHOLD= 0.2000000E-02 threshold for treating states as degnerate
   RTIME   =   -0.100 relaxation time in fs
  (WPLASMAI=    0.000 imaginary part of plasma frequency in eV, 0.658/RTIME)
   DFIELD  = 0.0000000 0.0000000 0.0000000 field for delta impulse in time
 
 Orbital magnetization related:
   ORBITALMAG=     F  switch on orbital magnetization
   LCHIMAG   =     F  perturbation theory with respect to B field
   DQ        =  0.001000  dq finite difference perturbation B field
   LLRAUG    =     F  two centre corrections for induced B field



--------------------------------------------------------------------------------------------------------


 Static calculation
 charge density and potential will be updated during run
 spin polarized calculation
 Conjugate gradient for all bands (Freysoldt, et al. PRB 79, 241103 (2009))
 perform sub-space diagonalisation
    before iterative eigenvector-optimisation
 modified Broyden-mixing scheme, WC =      100.0
 initial mixing is a Kerker type mixing with AMIX =  0.4000 and BMIX =      1.0000
 Hartree-type preconditioning will be used
 using additional bands           33
 reciprocal scheme for non local part
 use partial core corrections
 no Harris-corrections to forces 
 use gradient corrections 
 use of overlap-Matrix (Vanderbilt PP)
 Gauss-broadening in eV      SIGMA  =   0.10


--------------------------------------------------------------------------------------------------------


  energy-cutoff  :      500.00
  volume of cell :     3176.88
      direct lattice vectors                 reciprocal lattice vectors
    13.007884665 -0.014515359 -0.015967405     0.076876915  0.000264437  0.000138040
    -0.042401884 12.336416871 -0.017970877     0.000090543  0.081061229  0.000071042
    -0.035488591 -0.017310832 19.797378607     0.000062087  0.000073796  0.050511914

  length of vectors
    13.007902564 12.336502831 19.797417984     0.076877494  0.081061311  0.050512006


 
 old parameters found on file WAVECAR:
  energy-cutoff  :      500.00
  volume of cell :     3176.88
      direct lattice vectors                 reciprocal lattice vectors
    13.017500000  0.000000000  0.000000000     0.076819666  0.000185293 -0.000000996
    -0.029585874 12.265864319  0.000000000     0.000000000  0.081527072 -0.000025188
     0.000243080  0.006147065 19.896399049     0.000000000  0.000000000  0.050260351

  length of vectors

 
 k-points in units of 2pi/SCALE and weight: KPOINTS created by Atomic Simulation Env
   0.01924186  0.02033142  0.00005227       0.500
  -0.01919659  0.02019920 -0.00001675       0.500
 
 k-points in reciprocal lattice and weights: KPOINTS created by Atomic Simulation Env
   0.25000000  0.25000000  0.00000000       0.500
  -0.25000000  0.25000000  0.00000000       0.500
 
 position of ions in fractional coordinates (direct lattice) 
   0.22409409  0.00082528  0.49874833
   0.05626254  0.09974932  0.50165215
   0.11224012  0.00030866  0.50027040
   0.27941534  0.10239206  0.49781340
   0.22208081  0.20266931  0.49618396
   0.05309140  0.29925459  0.50345541
   0.11115496  0.20053150  0.50048716
   0.21269982  0.40066442  0.49242872
   0.05031990  0.50051015  0.50528058
   0.10475688  0.40041215  0.50178341
   0.26480885  0.50184512  0.48345703
   0.21208997  0.60239374  0.49280342
   0.05220398  0.70136380  0.50375505
   0.10441458  0.60106029  0.50251363
   0.22230844  0.79796791  0.49527475
   0.05601864  0.90028658  0.50149260
   0.11084552  0.79986195  0.50048939
   0.27864506  0.89979754  0.49676001
   0.55631224  0.99984016  0.50033198
   0.39129665  0.10420237  0.49873877
   0.44543351  0.00185308  0.49957932
   0.61329256  0.09930960  0.50200353
   0.55868948  0.19952299  0.50202062
   0.61621578  0.30030587  0.50445330
   0.61177402  0.49474817  0.50653913
   0.61185294  0.69557170  0.50300686
   0.55552898  0.79950047  0.49928531
   0.39011313  0.90014474  0.49763514
   0.61210378  0.89971004  0.49995886
   0.88972870  0.99936473  0.50288798
   0.72357152  0.09850375  0.50322407
   0.77882744  0.99895842  0.50258581
   0.94552038  0.09912379  0.50332351
   0.88915245  0.19845751  0.50526913
   0.72518083  0.29854019  0.50678545
   0.77943256  0.19808175  0.50536064
   0.94338680  0.29889672  0.50636980
   0.88842315  0.39898870  0.50845389
   0.72264325  0.49776516  0.50872709
   0.77904899  0.39882152  0.50862202
   0.94175591  0.49998736  0.50836896
   0.88691799  0.60009125  0.50811708
   0.72237022  0.69887879  0.50448460
   0.77684822  0.59903003  0.50787113
   0.94202693  0.70045749  0.50594891
   0.88775366  0.80028466  0.50417302
   0.72242771  0.89953862  0.50161826
   0.77754522  0.79943099  0.50321077
   0.94505904  0.89983539  0.50283652
   0.27244959  0.30490264  0.48918949
   0.27311574  0.69605631  0.48734303
   0.44912164  0.20353727  0.49939046
   0.55722011  0.59527891  0.50441724
   0.44630462  0.80136620  0.49590731
   0.56173219  0.39499935  0.50312020
   0.36387654  0.50507395  0.46539945
   0.41200020  0.35443188  0.48702742
   0.42691442  0.64960311  0.46172453
 
 position of ions in cartesian coordinates  (Angst):
   2.89725517 -0.00170561  9.87031652
   0.70982419  1.22104846  9.92870657
   1.44223949 -0.00648154  9.90224488
   3.61259421  1.25047781  9.84909878
   2.86259914  2.48840010  9.81595353
   0.66005088  3.68224344  9.96087180
   1.41962635  2.46356293  9.90295511
   2.73231024  4.93115152  9.73820120
   0.61540118  6.16502467  9.99343291
   1.32787956  4.92944432  9.92512779
   3.40616665  6.17875773  9.55793502
   2.71581036  7.41977091  9.74200388
   0.63144667  8.64283806  9.95959170
   1.31489320  7.40471577  9.93598383
   2.84035065  9.83226432  9.78725183
   0.67271291 11.09681616  9.91116542
   1.39018847  9.85715755  9.89223381
   3.56880036 11.08763358  9.81392667
   7.17629422 12.31770876  9.87841070
   5.06782382  1.27117045  9.86559957
   5.77633980  0.00774658  9.88321522
   7.95561254  1.20753231  9.92677667
   7.24109218  2.44459885  9.92618582
   7.98502797  3.68702126  9.97161676
   7.91893131  6.08577089 10.00948734
   7.91156790  8.56327372  9.93594748
   7.17463758  9.84626437  9.86130217
   5.01871837 11.09028363  9.82946585
   7.90628311 11.08165854  9.87193246
  11.51326657 12.30695974  9.92369762
   9.39009947  1.19596918  9.94919376
  10.07070379 12.30356242  9.91949349
  12.27715481  1.20039488  9.94760721
  11.53964629  2.42660160  9.98524028
   9.40242481  3.66361708 10.01607918
  10.11243530  2.42355703  9.98881071
  12.24082261  3.66485525 10.00435986
  11.52154365  4.90039341 10.04469823
   9.36089980  6.12134261 10.05097887
  10.09881829  4.89991574 10.04977610
  12.21101051  6.14558232 10.04035016
  11.49344960  7.38130597 10.03444034
   9.34897131  8.60244162  9.96337883
  10.06172841  7.36981624 10.03134779
  12.20612155  8.61870338  9.98883264
  11.49597129  9.85103147  9.95274722
   9.34131243 11.07791371  9.90302572
  10.06246289  9.84211657  9.93547225
  12.23721926 11.07832210  9.92358390
   3.51370380  3.74898313  9.67483986
   3.50584887  8.57444014  9.63124486
   5.81576946  2.49575664  9.87579302
   7.20511294  7.32678865  9.96654404
   5.75390058  9.87092472  9.79613727
   7.27234381  4.85601352  9.94439311
   4.69533166  6.21746451  9.19880228
   5.32693853  4.35800820  9.62891813
   5.50932319  7.99958513  9.12244476
 


--------------------------------------------------------------------------------------------------------


 k-point  1 :   0.2500 0.2500 0.0000  plane waves:   80618
 k-point  2 :  -0.2500 0.2500 0.0000  plane waves:   80674

 maximum and minimum number of plane-waves per node :      2545     2479

 maximum number of plane-waves:     80674
 maximum index in each direction: 
   IXMAX=   23   IYMAX=   22   IZMAX=   36
   IXMIN=  -23   IYMIN=  -22   IZMIN=  -36


 parallel 3D FFT for wavefunctions:
    minimum data exchange during FFTs selected (reduces bandwidth)
 parallel 3D FFT for charge:
    minimum data exchange during FFTs selected (reduces bandwidth)


 FFT grid for exact exchange (Hartree Fock) 
  NGX = 72; NGY = 70; NGZ =112

 
 Radii for the augmentation spheres in the non-local exchange
 for species   1 augmentation radius   0.874 (default was   0.699)
       energy cutoff for augmentation   2000.0
 for species   2 augmentation radius   0.886 (default was   0.709)
       energy cutoff for augmentation   2000.0
 for species   3 augmentation radius   1.263 (default was   1.010)
       energy cutoff for augmentation   2000.0
 for species   4 augmentation radius   1.508 (default was   1.206)
       energy cutoff for augmentation   2000.0

 real space projection operators:
  total allocation   :       2729.59 KBytes
  max/ min on nodes  :        144.06         45.21

 Maximum index for augmentation-charges in exchange          222
  SETUP_FOCK is finished

 total amount of memory used by VASP MPI-rank0   160083. kBytes
=======================================================================

   base      :      30000. kBytes
   nonl-proj :       5310. kBytes
   fftplans  :      12974. kBytes
   grid      :      33177. kBytes
   one-center:         62. kBytes
   HF        :         23. kBytes
   nonlr-proj:       2778. kBytes
   wavefun   :      75759. kBytes
 
     INWAV:  cpu time    3.6200: real time    3.6205
 Broyden mixing: mesh for mixing (old mesh)
   NGX = 47   NGY = 45   NGZ = 73
  (NGX  =192   NGY  =180   NGZ  =288)
  gives a total of 154395 points

 charge density for first step will be calculated from the start-wavefunctions


--------------------------------------------------------------------------------------------------------


 Maximum index for augmentation-charges          370 (set IRDMAX)


--------------------------------------------------------------------------------------------------------


 initial charge from wavefunction
 First call to EWALD:  gamma=   0.121
 Maximum number of real-space cells 3x 3x 2
 Maximum number of reciprocal cells 2x 2x 4

    FEWALD:  cpu time    0.0028: real time    0.0027


--------------------------------------- Iteration      1(   1)  ---------------------------------------


    POTLOK:  cpu time    1.2437: real time    1.2471
    SETDIJ:  cpu time    2.0902: real time    2.0915
    TRIAL :  cpu time  506.6983: real time  506.7629
    CORREC:  cpu time    0.0022: real time    0.0024
    CHARGE:  cpu time    1.5837: real time    1.5838
    --------------------------------------------
      LOOP:  cpu time  511.6337: real time  511.7054

 eigenvalue-minimisations  :     0
 total energy-change (2. order) :-0.6056820E+03  (-0.4395387E+00)
 number of electron     239.0000014 magnetization       1.0066049
 augmentation part       11.2936910 magnetization       1.0510822

 DIPCOR: dipole corrections for dipol
 direction  3 min pos     1,
 dipolmoment          -0.000391     -0.000191      0.218050 electrons x Angstroem
 Tr[quadrupol]     -6331.667306

 energy correction for charged system         0.000000 eV
 dipol+quadrupol energy correction           -0.001360 eV
 added-field ion interaction          0.039964 eV  (added to PSCEN)


 Free energy of the ion-electron system (eV)
  ---------------------------------------------------
  alpha Z        PSCENC =        97.87409233
  Ewald energy   TEWEN  =     36696.40505252
  -Hartree energ DENC   =    -44580.10843132
  -exchange      EXHF   =       531.77848489
  -V(xc)+E(xc)   XCENC  =       565.57028888
  PAW double counting   =     25276.13729169   -25273.81451123
  entropy T*S    EENTRO =        -0.00615094
  eigenvalues    EBANDS =     -3049.41758739
  atomic energy  EATOM  =      9129.90159310
  ---------------------------------------------------
  free energy    TOTEN  =      -605.68196039 eV

  energy without entropy =     -605.67580945  energy(sigma->0) =     -605.67888492
  exchange ACFDT corr.  =        -0.00745305  see jH, gK, PRB 81, 115126


--------------------------------------------------------------------------------------------------------




--------------------------------------- Iteration      1(   2)  ---------------------------------------


    POTLOK:  cpu time    1.2713: real time    1.2714
    SETDIJ:  cpu time    2.0919: real time    2.0919
    TRIAL :  cpu time  506.8096: real time  506.8492
    CORREC:  cpu time    0.0021: real time    0.0024
    CHARGE:  cpu time    1.5803: real time    1.5804
    --------------------------------------------
      LOOP:  cpu time  511.7577: real time  511.7975

 eigenvalue-minimisations  :     0
 total energy-change (2. order) :-0.3530224E+00  (-0.3808214E+00)
 number of electron     239.0000014 magnetization       1.0030577
 augmentation part       11.2591565 magnetization       1.0680961

 DIPCOR: dipole corrections for dipol
 direction  3 min pos     1,
 dipolmoment          -0.000418     -0.000204      0.233099 electrons x Angstroem
 Tr[quadrupol]     -6331.484234

 energy correction for charged system         0.000000 eV
 dipol+quadrupol energy correction           -0.001554 eV
 added-field ion interaction          0.042722 eV  (added to PSCEN)


 Free energy of the ion-electron system (eV)
  ---------------------------------------------------
  alpha Z        PSCENC =        97.87665613
  Ewald energy   TEWEN  =     36696.40505252
  -Hartree energ DENC   =    -44565.16231583
  -exchange      EXHF   =       531.65769842
  -V(xc)+E(xc)   XCENC  =       565.26203095
  PAW double counting   =     25396.08555403   -25393.37726401
  entropy T*S    EENTRO =        -0.00371276
  eigenvalues    EBANDS =     -3064.67783715
  atomic energy  EATOM  =      9129.90159310
  ---------------------------------------------------
  free energy    TOTEN  =      -606.03498276 eV

  energy without entropy =     -606.03127001  energy(sigma->0) =     -606.03312639
  exchange ACFDT corr.  =        -0.00504976  see jH, gK, PRB 81, 115126


--------------------------------------------------------------------------------------------------------




--------------------------------------- Iteration      1(   3)  ---------------------------------------


    POTLOK:  cpu time    1.2734: real time    1.2734
    SETDIJ:  cpu time    2.0936: real time    2.0937
    TRIAL :  cpu time  504.5979: real time  504.6574
    CORREC:  cpu time    0.0021: real time    0.0024
    CHARGE:  cpu time    1.5752: real time    1.5752
    --------------------------------------------
      LOOP:  cpu time  509.5443: real time  509.6061

 eigenvalue-minimisations  :     0
 total energy-change (2. order) :-0.2955417E+00  (-0.2305966E+00)
 number of electron     239.0000014 magnetization       1.0010712
 augmentation part       11.2600125 magnetization       1.0766978

 DIPCOR: dipole corrections for dipol
 direction  3 min pos     1,
 dipolmoment          -0.000388     -0.000189      0.216637 electrons x Angstroem
 Tr[quadrupol]     -6331.281362

 energy correction for charged system         0.000000 eV
 dipol+quadrupol energy correction           -0.001343 eV
 added-field ion interaction          0.039705 eV  (added to PSCEN)


 Free energy of the ion-electron system (eV)
  ---------------------------------------------------
  alpha Z        PSCENC =        97.87385082
  Ewald energy   TEWEN  =     36696.40505252
  -Hartree energ DENC   =    -44547.74012461
  -exchange      EXHF   =       531.55546749
  -V(xc)+E(xc)   XCENC  =       564.88364836
  PAW double counting   =     25547.00404372   -25544.03602962
  entropy T*S    EENTRO =        -0.00200943
  eigenvalues    EBANDS =     -3082.17431352
  atomic energy  EATOM  =      9129.90159310
  ---------------------------------------------------
  free energy    TOTEN  =      -606.33052451 eV

  energy without entropy =     -606.32851508  energy(sigma->0) =     -606.32951979
  exchange ACFDT corr.  =        -0.00273727  see jH, gK, PRB 81, 115126


--------------------------------------------------------------------------------------------------------




--------------------------------------- Iteration      1(   4)  ---------------------------------------


    POTLOK:  cpu time    1.2727: real time    1.2727
    SETDIJ:  cpu time    2.1169: real time    2.1170
    TRIAL :  cpu time  504.8434: real time  504.8982
    CORREC:  cpu time    0.0020: real time    0.0023
    CHARGE:  cpu time    1.5723: real time    1.5724
    --------------------------------------------
      LOOP:  cpu time  509.8095: real time  509.8646

 eigenvalue-minimisations  :     0
 total energy-change (2. order) :-0.1783461E+00  (-0.1380468E+00)
 number of electron     239.0000014 magnetization       1.0004238
 augmentation part       11.2627295 magnetization       1.0844211

 DIPCOR: dipole corrections for dipol
 direction  3 min pos     1,
 dipolmoment          -0.000371     -0.000181      0.207017 electrons x Angstroem
 Tr[quadrupol]     -6331.196968

 energy correction for charged system         0.000000 eV
 dipol+quadrupol energy correction           -0.001226 eV
 added-field ion interaction          0.037942 eV  (added to PSCEN)


 Free energy of the ion-electron system (eV)
  ---------------------------------------------------
  alpha Z        PSCENC =        97.87220440
  Ewald energy   TEWEN  =     36696.40505252
  -Hartree energ DENC   =    -44539.45810981
  -exchange      EXHF   =       531.64903119
  -V(xc)+E(xc)   XCENC  =       564.70960366
  PAW double counting   =     25677.06377916   -25674.16883110
  entropy T*S    EENTRO =        -0.00111190
  eigenvalues    EBANDS =     -3090.48118428
  atomic energy  EATOM  =      9129.90159310
  ---------------------------------------------------
  free energy    TOTEN  =      -606.50887060 eV

  energy without entropy =     -606.50775870  energy(sigma->0) =     -606.50831465
  exchange ACFDT corr.  =        -0.00133371  see jH, gK, PRB 81, 115126


--------------------------------------------------------------------------------------------------------




--------------------------------------- Iteration      1(   5)  ---------------------------------------


    POTLOK:  cpu time    1.2720: real time    1.2720
    SETDIJ:  cpu time    2.0891: real time    2.0891
    TRIAL :  cpu time  505.0318: real time  505.0869
    CORREC:  cpu time    0.0019: real time    0.0022
    CHARGE:  cpu time    1.5697: real time    1.5697
    --------------------------------------------
      LOOP:  cpu time  509.9664: real time  510.0218

 eigenvalue-minimisations  :     0
 total energy-change (2. order) :-0.1133650E+00  (-0.9578402E-01)
 number of electron     239.0000014 magnetization       1.0001898
 augmentation part       11.2602334 magnetization       1.0896468

 DIPCOR: dipole corrections for dipol
 direction  3 min pos     1,
 dipolmoment          -0.000394     -0.000192      0.219868 electrons x Angstroem
 Tr[quadrupol]     -6331.223195

 energy correction for charged system         0.000000 eV
 dipol+quadrupol energy correction           -0.001383 eV
 added-field ion interaction          0.040297 eV  (added to PSCEN)


 Free energy of the ion-electron system (eV)
  ---------------------------------------------------
  alpha Z        PSCENC =        97.87440270
  Ewald energy   TEWEN  =     36696.40505252
  -Hartree energ DENC   =    -44540.06827270
  -exchange      EXHF   =       531.91550649
  -V(xc)+E(xc)   XCENC  =       564.76490409
  PAW double counting   =     25772.99119095   -25770.21561217
  entropy T*S    EENTRO =        -0.00062475
  eigenvalues    EBANDS =     -3090.18988865
  atomic energy  EATOM  =      9129.90159310
  ---------------------------------------------------
  free energy    TOTEN  =      -606.62223557 eV

  energy without entropy =     -606.62161082  energy(sigma->0) =     -606.62192319
  exchange ACFDT corr.  =        -0.00067195  see jH, gK, PRB 81, 115126


--------------------------------------------------------------------------------------------------------




--------------------------------------- Iteration      1(   6)  ---------------------------------------


    POTLOK:  cpu time    1.2693: real time    1.2693
    SETDIJ:  cpu time    2.1132: real time    2.1132
    TRIAL :  cpu time  505.9040: real time  505.9883
    CORREC:  cpu time    0.0019: real time    0.0022
    CHARGE:  cpu time    1.5692: real time    1.5692
    --------------------------------------------
      LOOP:  cpu time  510.8597: real time  510.9443

 eigenvalue-minimisations  :     0
 total energy-change (2. order) :-0.8107757E-01  (-0.6816403E-01)
 number of electron     239.0000014 magnetization       1.0000797
 augmentation part       11.2603520 magnetization       1.0900121

 DIPCOR: dipole corrections for dipol
 direction  3 min pos     1,
 dipolmoment          -0.000421     -0.000205      0.234652 electrons x Angstroem
 Tr[quadrupol]     -6331.287414

 energy correction for charged system         0.000000 eV
 dipol+quadrupol energy correction           -0.001575 eV
 added-field ion interaction          0.043006 eV  (added to PSCEN)


 Free energy of the ion-electron system (eV)
  ---------------------------------------------------
  alpha Z        PSCENC =        97.87691998
  Ewald energy   TEWEN  =     36696.40505252
  -Hartree energ DENC   =    -44543.94636974
  -exchange      EXHF   =       532.22256610
  -V(xc)+E(xc)   XCENC  =       564.91468914
  PAW double counting   =     25836.13279813   -25833.38863938
  entropy T*S    EENTRO =        -0.00033511
  eigenvalues    EBANDS =     -3086.82129822
  atomic energy  EATOM  =      9129.90159310
  ---------------------------------------------------
  free energy    TOTEN  =      -606.70331313 eV

  energy without entropy =     -606.70297803  energy(sigma->0) =     -606.70314558
  exchange ACFDT corr.  =        -0.00034901  see jH, gK, PRB 81, 115126


--------------------------------------------------------------------------------------------------------




--------------------------------------- Iteration      1(   7)  ---------------------------------------


    POTLOK:  cpu time    1.2691: real time    1.2730
    SETDIJ:  cpu time    2.0888: real time    2.0888
    TRIAL :  cpu time  505.5752: real time  505.7355
    CORREC:  cpu time    0.0017: real time    0.0020
    CHARGE:  cpu time    1.5684: real time    1.5684
    --------------------------------------------
      LOOP:  cpu time  510.5053: real time  510.6698

 eigenvalue-minimisations  :     0
 total energy-change (2. order) :-0.5926326E-01  (-0.5054775E-01)
 number of electron     239.0000014 magnetization       1.0000302
 augmentation part       11.2651573 magnetization       1.0871767

 DIPCOR: dipole corrections for dipol
 direction  3 min pos     1,
 dipolmoment          -0.000427     -0.000208      0.238091 electrons x Angstroem
 Tr[quadrupol]     -6331.341894

 energy correction for charged system         0.000000 eV
 dipol+quadrupol energy correction           -0.001622 eV
 added-field ion interaction          0.043637 eV  (added to PSCEN)


 Free energy of the ion-electron system (eV)
  ---------------------------------------------------
  alpha Z        PSCENC =        97.87750381
  Ewald energy   TEWEN  =     36696.40505252
  -Hartree energ DENC   =    -44547.45296351
  -exchange      EXHF   =       532.48070783
  -V(xc)+E(xc)   XCENC  =       565.05571639
  PAW double counting   =     25874.02455563   -25871.29212785
  entropy T*S    EENTRO =        -0.00017009
  eigenvalues    EBANDS =     -3083.76227919
  atomic energy  EATOM  =      9129.90159310
  ---------------------------------------------------
  free energy    TOTEN  =      -606.76257639 eV

  energy without entropy =     -606.76240630  energy(sigma->0) =     -606.76249135
  exchange ACFDT corr.  =        -0.00017450  see jH, gK, PRB 81, 115126


--------------------------------------------------------------------------------------------------------




--------------------------------------- Iteration      1(   8)  ---------------------------------------


    POTLOK:  cpu time    1.2691: real time    1.2692
    SETDIJ:  cpu time    2.1287: real time    2.1287
    TRIAL :  cpu time  505.0518: real time  505.2012
    CORREC:  cpu time    0.0019: real time    0.0021
    CHARGE:  cpu time    1.5696: real time    1.5696
    --------------------------------------------
      LOOP:  cpu time  510.0231: real time  510.1729

 eigenvalue-minimisations  :     0
 total energy-change (2. order) :-0.4501414E-01  (-0.3877710E-01)
 number of electron     239.0000014 magnetization       1.0000115
 augmentation part       11.2710182 magnetization       1.0838428

 DIPCOR: dipole corrections for dipol
 direction  3 min pos     1,
 dipolmoment          -0.000419     -0.000205      0.233904 electrons x Angstroem
 Tr[quadrupol]     -6331.373834

 energy correction for charged system         0.000000 eV
 dipol+quadrupol energy correction           -0.001565 eV
 added-field ion interaction          0.042869 eV  (added to PSCEN)


 Free energy of the ion-electron system (eV)
  ---------------------------------------------------
  alpha Z        PSCENC =        97.87679294
  Ewald energy   TEWEN  =     36696.40505252
  -Hartree energ DENC   =    -44549.59968085
  -exchange      EXHF   =       532.66800131
  -V(xc)+E(xc)   XCENC  =       565.15607045
  PAW double counting   =     25895.07544493   -25892.39031595
  entropy T*S    EENTRO =        -0.00008488
  eigenvalues    EBANDS =     -3081.90037889
  atomic energy  EATOM  =      9129.90159310
  ---------------------------------------------------
  free energy    TOTEN  =      -606.80759054 eV

  energy without entropy =     -606.80750566  energy(sigma->0) =     -606.80754810
  exchange ACFDT corr.  =        -0.00008275  see jH, gK, PRB 81, 115126


--------------------------------------------------------------------------------------------------------




--------------------------------------- Iteration      1(   9)  ---------------------------------------


    POTLOK:  cpu time    1.2662: real time    1.2664
    SETDIJ:  cpu time    2.0844: real time    2.0888
    TRIAL :  cpu time  505.4757: real time  505.6361
    CORREC:  cpu time    0.0018: real time    0.0020
    CHARGE:  cpu time    1.5691: real time    1.5691
    --------------------------------------------
      LOOP:  cpu time  510.3994: real time  510.5664

 eigenvalue-minimisations  :     0
 total energy-change (2. order) :-0.3512531E-01  (-0.3050899E-01)
 number of electron     239.0000014 magnetization       1.0000048
 augmentation part       11.2750473 magnetization       1.0812077

 DIPCOR: dipole corrections for dipol
 direction  3 min pos     1,
 dipolmoment          -0.000412     -0.000201      0.229930 electrons x Angstroem
 Tr[quadrupol]     -6331.388453

 energy correction for charged system         0.000000 eV
 dipol+quadrupol energy correction           -0.001512 eV
 added-field ion interaction          0.042141 eV  (added to PSCEN)


 Free energy of the ion-electron system (eV)
  ---------------------------------------------------
  alpha Z        PSCENC =        97.87611734
  Ewald energy   TEWEN  =     36696.40505252
  -Hartree energ DENC   =    -44550.64056820
  -exchange      EXHF   =       532.79819724
  -V(xc)+E(xc)   XCENC  =       565.22179985
  PAW double counting   =     25906.05272482   -25903.43581196
  entropy T*S    EENTRO =        -0.00004298
  eigenvalues    EBANDS =     -3081.02173568
  atomic energy  EATOM  =      9129.90159310
  ---------------------------------------------------
  free energy    TOTEN  =      -606.84271584 eV

  energy without entropy =     -606.84267286  energy(sigma->0) =     -606.84269435
  exchange ACFDT corr.  =        -0.00003867  see jH, gK, PRB 81, 115126


--------------------------------------------------------------------------------------------------------




--------------------------------------- Iteration      1(  10)  ---------------------------------------


    POTLOK:  cpu time    1.2639: real time    1.2640
    SETDIJ:  cpu time    2.1210: real time    2.1210
    TRIAL :  cpu time  506.3236: real time  506.4712
    CORREC:  cpu time    0.0018: real time    0.0021
    CHARGE:  cpu time    1.5689: real time    1.5690
    --------------------------------------------
      LOOP:  cpu time  511.2810: real time  511.4291

 eigenvalue-minimisations  :     0
 total energy-change (2. order) :-0.2800208E-01  (-0.2454472E-01)
 number of electron     239.0000014 magnetization       1.0000022
 augmentation part       11.2771415 magnetization       1.0791099

 DIPCOR: dipole corrections for dipol
 direction  3 min pos     1,
 dipolmoment          -0.000412     -0.000201      0.229597 electrons x Angstroem
 Tr[quadrupol]     -6331.394427

 energy correction for charged system         0.000000 eV
 dipol+quadrupol energy correction           -0.001508 eV
 added-field ion interaction          0.042080 eV  (added to PSCEN)


 Free energy of the ion-electron system (eV)
  ---------------------------------------------------
  alpha Z        PSCENC =        97.87606069
  Ewald energy   TEWEN  =     36696.40505252
  -Hartree energ DENC   =    -44551.06513966
  -exchange      EXHF   =       532.89232649
  -V(xc)+E(xc)   XCENC  =       565.26657588
  PAW double counting   =     25911.39416777   -25908.83539469
  entropy T*S    EENTRO =        -0.00002220
  eigenvalues    EBANDS =     -3080.70591703
  atomic energy  EATOM  =      9129.90159310
  ---------------------------------------------------
  free energy    TOTEN  =      -606.87071792 eV

  energy without entropy =     -606.87069572  energy(sigma->0) =     -606.87070682
  exchange ACFDT corr.  =        -0.00001841  see jH, gK, PRB 81, 115126


--------------------------------------------------------------------------------------------------------




--------------------------------------- Iteration      1(  11)  ---------------------------------------


    POTLOK:  cpu time    1.2594: real time    1.2594
    SETDIJ:  cpu time    2.0803: real time    2.0841
    TRIAL :  cpu time  506.2096: real time  506.3626
    CORREC:  cpu time    0.0016: real time    0.0016
    CHARGE:  cpu time    1.5788: real time    1.5788
    --------------------------------------------
      LOOP:  cpu time  511.1317: real time  511.2885

 eigenvalue-minimisations  :     0
 total energy-change (2. order) :-0.2273324E-01  (-0.2005383E-01)
 number of electron     239.0000014 magnetization       1.0000011
 augmentation part       11.2785514 magnetization       1.0770522

 DIPCOR: dipole corrections for dipol
 direction  3 min pos     1,
 dipolmoment          -0.000416     -0.000203      0.231814 electrons x Angstroem
 Tr[quadrupol]     -6331.397546

 energy correction for charged system         0.000000 eV
 dipol+quadrupol energy correction           -0.001537 eV
 added-field ion interaction          0.042486 eV  (added to PSCEN)


 Free energy of the ion-electron system (eV)
  ---------------------------------------------------
  alpha Z        PSCENC =        97.87643786
  Ewald energy   TEWEN  =     36696.40505252
  -Hartree energ DENC   =    -44551.22996474
  -exchange      EXHF   =       532.96614830
  -V(xc)+E(xc)   XCENC  =       565.30017306
  PAW double counting   =     25913.83740841   -25911.31609791
  entropy T*S    EENTRO =        -0.00001162
  eigenvalues    EBANDS =     -3080.63417956
  atomic energy  EATOM  =      9129.90159310
  ---------------------------------------------------
  free energy    TOTEN  =      -606.89345116 eV

  energy without entropy =     -606.89343954  energy(sigma->0) =     -606.89344535
  exchange ACFDT corr.  =        -0.00000897  see jH, gK, PRB 81, 115126


--------------------------------------------------------------------------------------------------------




--------------------------------------- Iteration      1(  12)  ---------------------------------------


    POTLOK:  cpu time    1.2570: real time    1.2570
    SETDIJ:  cpu time    2.0845: real time    2.0847
    TRIAL :  cpu time  506.0674: real time  506.2182
    CORREC:  cpu time    0.0017: real time    0.0019
    CHARGE:  cpu time    1.5778: real time    1.5778
    --------------------------------------------
      LOOP:  cpu time  510.9903: real time  511.1436

 eigenvalue-minimisations  :     0
 total energy-change (2. order) :-0.1870063E-01  (-0.1656837E-01)
 number of electron     239.0000014 magnetization       1.0000006
 augmentation part       11.2801703 magnetization       1.0748580

 DIPCOR: dipole corrections for dipol
 direction  3 min pos     1,
 dipolmoment          -0.000420     -0.000205      0.234151 electrons x Angstroem
 Tr[quadrupol]     -6331.400226

 energy correction for charged system         0.000000 eV
 dipol+quadrupol energy correction           -0.001568 eV
 added-field ion interaction          0.042915 eV  (added to PSCEN)


 Free energy of the ion-electron system (eV)
  ---------------------------------------------------
  alpha Z        PSCENC =        97.87683498
  Ewald energy   TEWEN  =     36696.40505252
  -Hartree energ DENC   =    -44551.32069605
  -exchange      EXHF   =       533.02838366
  -V(xc)+E(xc)   XCENC  =       565.32766556
  PAW double counting   =     25915.10352966   -25912.60714100
  entropy T*S    EENTRO =        -0.00000615
  eigenvalues    EBANDS =     -3080.62736260
  atomic energy  EATOM  =      9129.90159310
  ---------------------------------------------------
  free energy    TOTEN  =      -606.91215179 eV

  energy without entropy =     -606.91214564  energy(sigma->0) =     -606.91214871
  exchange ACFDT corr.  =        -0.00000444  see jH, gK, PRB 81, 115126


--------------------------------------------------------------------------------------------------------




--------------------------------------- Iteration      1(  13)  ---------------------------------------


    POTLOK:  cpu time    1.2543: real time    1.2548
    SETDIJ:  cpu time    2.0899: real time    2.0942
    TRIAL :  cpu time  505.4770: real time  505.6366
    CORREC:  cpu time    0.0015: real time    0.0018
    CHARGE:  cpu time    1.5713: real time    1.5714
    --------------------------------------------
      LOOP:  cpu time  510.3963: real time  510.5611

 eigenvalue-minimisations  :     0
 total energy-change (2. order) :-0.1553890E-01  (-0.1379887E-01)
 number of electron     239.0000014 magnetization       1.0000003
 augmentation part       11.2820074 magnetization       1.0726689

 DIPCOR: dipole corrections for dipol
 direction  3 min pos     1,
 dipolmoment          -0.000422     -0.000206      0.235297 electrons x Angstroem
 Tr[quadrupol]     -6331.403161

 energy correction for charged system         0.000000 eV
 dipol+quadrupol energy correction           -0.001584 eV
 added-field ion interaction          0.043125 eV  (added to PSCEN)


 Free energy of the ion-electron system (eV)
  ---------------------------------------------------
  alpha Z        PSCENC =        97.87702965
  Ewald energy   TEWEN  =     36696.40505252
  -Hartree energ DENC   =    -44551.42062738
  -exchange      EXHF   =       533.08335632
  -V(xc)+E(xc)   XCENC  =       565.35172138
  PAW double counting   =     25916.27123820   -25913.79829409
  entropy T*S    EENTRO =        -0.00000331
  eigenvalues    EBANDS =     -3080.59875425
  atomic energy  EATOM  =      9129.90159310
  ---------------------------------------------------
  free energy    TOTEN  =      -606.92769069 eV

  energy without entropy =     -606.92768738  energy(sigma->0) =     -606.92768903
  exchange ACFDT corr.  =        -0.00000223  see jH, gK, PRB 81, 115126


--------------------------------------------------------------------------------------------------------




--------------------------------------- Iteration      1(  14)  ---------------------------------------


    POTLOK:  cpu time    1.2512: real time    1.2514
    SETDIJ:  cpu time    2.0836: real time    2.0836
    TRIAL :  cpu time  505.7866: real time  505.9395
    CORREC:  cpu time    0.0015: real time    0.0017
    CHARGE:  cpu time    1.5790: real time    1.5792
    --------------------------------------------
      LOOP:  cpu time  510.7042: real time  510.8577

 eigenvalue-minimisations  :     0
 total energy-change (2. order) :-0.1300275E-01  (-0.1155509E-01)
 number of electron     239.0000014 magnetization       1.0000002
 augmentation part       11.2836997 magnetization       1.0706575

 DIPCOR: dipole corrections for dipol
 direction  3 min pos     1,
 dipolmoment          -0.000422     -0.000206      0.235527 electrons x Angstroem
 Tr[quadrupol]     -6331.406517

 energy correction for charged system         0.000000 eV
 dipol+quadrupol energy correction           -0.001587 eV
 added-field ion interaction          0.043167 eV  (added to PSCEN)


 Free energy of the ion-electron system (eV)
  ---------------------------------------------------
  alpha Z        PSCENC =        97.87706865
  Ewald energy   TEWEN  =     36696.40505252
  -Hartree energ DENC   =    -44551.55793963
  -exchange      EXHF   =       533.13326669
  -V(xc)+E(xc)   XCENC  =       565.37384076
  PAW double counting   =     25917.86054931   -25915.41315299
  entropy T*S    EENTRO =        -0.00000183
  eigenvalues    EBANDS =     -3080.52096855
  atomic energy  EATOM  =      9129.90159310
  ---------------------------------------------------
  free energy    TOTEN  =      -606.94069344 eV

  energy without entropy =     -606.94069161  energy(sigma->0) =     -606.94069253
  exchange ACFDT corr.  =        -0.00000114  see jH, gK, PRB 81, 115126


--------------------------------------------------------------------------------------------------------




--------------------------------------- Iteration      1(  15)  ---------------------------------------


    POTLOK:  cpu time    1.2479: real time    1.2480
    SETDIJ:  cpu time    2.0790: real time    2.0828
    TRIAL :  cpu time  505.0856: real time  505.2205
    CORREC:  cpu time    0.0016: real time    0.0019
    CHARGE:  cpu time    1.5784: real time    1.5786
    --------------------------------------------
      LOOP:  cpu time  509.9944: real time  510.1337

 eigenvalue-minimisations  :     0
 total energy-change (2. order) :-0.1093041E-01  (-0.9720053E-02)
 number of electron     239.0000014 magnetization       1.0000001
 augmentation part       11.2850535 magnetization       1.0688574

 DIPCOR: dipole corrections for dipol
 direction  3 min pos     1,
 dipolmoment          -0.000422     -0.000206      0.235660 electrons x Angstroem
 Tr[quadrupol]     -6331.410209

 energy correction for charged system         0.000000 eV
 dipol+quadrupol energy correction           -0.001589 eV
 added-field ion interaction          0.043191 eV  (added to PSCEN)


 Free energy of the ion-electron system (eV)
  ---------------------------------------------------
  alpha Z        PSCENC =        97.87709120
  Ewald energy   TEWEN  =     36696.40505252
  -Hartree energ DENC   =    -44551.72563162
  -exchange      EXHF   =       533.17912148
  -V(xc)+E(xc)   XCENC  =       565.39457030
  PAW double counting   =     25919.94099243   -25917.51870674
  entropy T*S    EENTRO =        -0.00000104
  eigenvalues    EBANDS =     -3080.40570470
  atomic energy  EATOM  =      9129.90159310
  ---------------------------------------------------
  free energy    TOTEN  =      -606.95162385 eV

  energy without entropy =     -606.95162281  energy(sigma->0) =     -606.95162333
  exchange ACFDT corr.  =        -0.00000060  see jH, gK, PRB 81, 115126


--------------------------------------------------------------------------------------------------------




--------------------------------------- Iteration      1(  16)  ---------------------------------------


    POTLOK:  cpu time    1.2471: real time    1.2472
    SETDIJ:  cpu time    2.1164: real time    2.1164
    TRIAL :  cpu time  505.6467: real time  505.8034
    CORREC:  cpu time    0.0017: real time    0.0019
    CHARGE:  cpu time    1.5720: real time    1.5723
    --------------------------------------------
      LOOP:  cpu time  510.5855: real time  510.7427

 eigenvalue-minimisations  :     0
 total energy-change (2. order) :-0.9222718E-02  (-0.8212543E-02)
 number of electron     239.0000014 magnetization       1.0000001
 augmentation part       11.2861177 magnetization       1.0672059

 DIPCOR: dipole corrections for dipol
 direction  3 min pos     1,
 dipolmoment          -0.000423     -0.000206      0.236110 electrons x Angstroem
 Tr[quadrupol]     -6331.413922

 energy correction for charged system         0.000000 eV
 dipol+quadrupol energy correction           -0.001595 eV
 added-field ion interaction          0.043274 eV  (added to PSCEN)


 Free energy of the ion-electron system (eV)
  ---------------------------------------------------
  alpha Z        PSCENC =        97.87716764
  Ewald energy   TEWEN  =     36696.40505252
  -Hartree energ DENC   =    -44551.89875558
  -exchange      EXHF   =       533.22113581
  -V(xc)+E(xc)   XCENC  =       565.41376388
  PAW double counting   =     25922.27551916   -25919.87508436
  entropy T*S    EENTRO =        -0.00000061
  eigenvalues    EBANDS =     -3080.28123771
  atomic energy  EATOM  =      9129.90159310
  ---------------------------------------------------
  free energy    TOTEN  =      -606.96084657 eV

  energy without entropy =     -606.96084596  energy(sigma->0) =     -606.96084627
  exchange ACFDT corr.  =        -0.00000032  see jH, gK, PRB 81, 115126


--------------------------------------------------------------------------------------------------------




--------------------------------------- Iteration      1(  17)  ---------------------------------------


    POTLOK:  cpu time    1.2455: real time    1.2455
    SETDIJ:  cpu time    2.0810: real time    2.0809
    TRIAL :  cpu time  505.7634: real time  505.9212
    CORREC:  cpu time    0.0016: real time    0.0018
    CHARGE:  cpu time    1.5705: real time    1.5705
    --------------------------------------------
      LOOP:  cpu time  510.6638: real time  510.8218

 eigenvalue-minimisations  :     0
 total energy-change (2. order) :-0.7811550E-02  (-0.6968712E-02)
 number of electron     239.0000014 magnetization       1.0000001
 augmentation part       11.2870049 magnetization       1.0656528

 DIPCOR: dipole corrections for dipol
 direction  3 min pos     1,
 dipolmoment          -0.000424     -0.000207      0.236777 electrons x Angstroem
 Tr[quadrupol]     -6331.417319

 energy correction for charged system         0.000000 eV
 dipol+quadrupol energy correction           -0.001604 eV
 added-field ion interaction          0.043396 eV  (added to PSCEN)


 Free energy of the ion-electron system (eV)
  ---------------------------------------------------
  alpha Z        PSCENC =        97.87728094
  Ewald energy   TEWEN  =     36696.40505252
  -Hartree energ DENC   =    -44552.05534609
  -exchange      EXHF   =       533.25925318
  -V(xc)+E(xc)   XCENC  =       565.43110816
  PAW double counting   =     25924.59067474   -25922.20832869
  entropy T*S    EENTRO =        -0.00000037
  eigenvalues    EBANDS =     -3080.16994538
  atomic energy  EATOM  =      9129.90159310
  ---------------------------------------------------
  free energy    TOTEN  =      -606.96865812 eV

  energy without entropy =     -606.96865776  energy(sigma->0) =     -606.96865794
  exchange ACFDT corr.  =        -0.00000018  see jH, gK, PRB 81, 115126


--------------------------------------------------------------------------------------------------------




--------------------------------------- Iteration      1(  18)  ---------------------------------------


    POTLOK:  cpu time    1.2421: real time    1.2421
    SETDIJ:  cpu time    2.0811: real time    2.0812
    TRIAL :  cpu time  505.2296: real time  505.3832
    CORREC:  cpu time    0.0015: real time    0.0017
    CHARGE:  cpu time    1.5696: real time    1.5697
    --------------------------------------------
      LOOP:  cpu time  510.1268: real time  510.2807

 eigenvalue-minimisations  :     0
 total energy-change (2. order) :-0.6642069E-02  (-0.5936771E-02)
 number of electron     239.0000014 magnetization       1.0000000
 augmentation part       11.2877830 magnetization       1.0641879

 DIPCOR: dipole corrections for dipol
 direction  3 min pos     1,
 dipolmoment          -0.000426     -0.000208      0.237421 electrons x Angstroem
 Tr[quadrupol]     -6331.420250

 energy correction for charged system         0.000000 eV
 dipol+quadrupol energy correction           -0.001613 eV
 added-field ion interaction          0.043514 eV  (added to PSCEN)


 Free energy of the ion-electron system (eV)
  ---------------------------------------------------
  alpha Z        PSCENC =        97.87739008
  Ewald energy   TEWEN  =     36696.40505252
  -Hartree energ DENC   =    -44552.18787320
  -exchange      EXHF   =       533.29358741
  -V(xc)+E(xc)   XCENC  =       565.44656071
  PAW double counting   =     25926.73737027   -25924.37031073
[...]
  augment    35.78342    31.89366    38.49488    -1.72652     0.23437     1.48223
  Kinetic  3518.39237  3496.46981  3943.00411     0.01915     1.37846     7.54922
  Fock     -291.02334  -287.77394  -270.25582     1.68989    -0.62959    -0.46915
  -------------------------------------------------------------------------------------
  Total     -41.03335   -40.25017    -0.72107     1.64744     0.04256     1.33217
  in kB     -20.69414   -20.29916    -0.36365     0.83084     0.02146     0.67185
  external pressure =      -13.79 kB  Pullay stress =        0.00 kB


 VOLUME and BASIS-vectors are now :
 -----------------------------------------------------------------------------
  energy-cutoff  :      500.00
  volume of cell :     3176.88
      direct lattice vectors                 reciprocal lattice vectors
    13.007884665 -0.014515359 -0.015967405     0.076876915  0.000264437  0.000138040
    -0.042401884 12.336416871 -0.017970877     0.000090543  0.081061229  0.000071042
    -0.035488591 -0.017310832 19.797378607     0.000062087  0.000073796  0.050511914

  length of vectors
    13.007902564 12.336502831 19.797417984     0.076877494  0.081061311  0.050512006


 FORCES acting on ions:
    Electron-Ion                     Ewald-Force                    Non-Local-Force
 -----------------------------------------------------------------------------------------------
   -.469E+01 0.399E+01 -.258E+01   0.517E+01 -.414E+01 0.270E+01   -.364E+00 0.157E+00 -.132E+00
   -.382E+01 0.352E+01 -.611E+01   0.397E+01 -.363E+01 0.617E+01   -.170E+00 0.319E-01 -.530E-01
   -.129E+02 0.335E+01 -.912E+00   0.130E+02 -.343E+01 0.785E+00   -.203E+00 0.789E-01 0.128E+00
   -.829E+01 -.699E-01 0.114E+01   0.867E+01 0.441E+00 -.120E+01   -.443E+00 -.424E+00 0.396E-01
   -.123E+02 0.933E+01 0.709E+01   0.129E+02 -.896E+01 -.695E+01   -.526E+00 -.307E+00 -.154E+00
   -.297E+01 0.943E+01 -.176E+02   0.332E+01 -.961E+01 0.176E+02   -.184E+00 0.177E+00 -.247E-01
   -.912E+01 0.483E+01 -.494E+01   0.965E+01 -.485E+01 0.494E+01   -.517E+00 0.105E+00 -.334E-02
   0.200E+01 0.405E+01 0.101E+02   -.141E+01 -.511E+01 -.103E+02   -.491E+00 0.359E+00 0.202E+00
   -.632E+01 -.207E+01 -.307E+02   0.633E+01 0.234E+01 0.306E+02   -.120E+00 -.263E+00 0.707E-02
   -.177E+01 -.153E+01 -.218E+02   0.185E+01 0.152E+01 0.219E+02   -.129E+00 -.852E-01 -.188E+00
   0.212E+02 -.159E+02 0.385E+02   -.227E+02 0.168E+02 -.391E+02   0.259E+01 -.659E+00 0.196E+00
   -.168E+02 -.165E+02 0.950E+00   0.178E+02 0.186E+02 -.127E+01   -.990E+00 -.157E+01 0.291E+00
   -.413E+01 -.107E+02 -.216E+02   0.446E+01 0.108E+02 0.215E+02   -.248E+00 -.199E+00 0.160E-01
   -.669E+01 -.433E+01 -.292E+02   0.732E+01 0.461E+01 0.293E+02   -.568E+00 -.149E+00 -.198E+00
   -.257E+02 0.106E+01 0.765E+01   0.266E+02 -.243E+01 -.751E+01   -.112E+01 0.133E+01 -.125E+00
   -.514E+01 0.218E+00 -.629E+01   0.532E+01 -.346E+00 0.637E+01   -.235E+00 0.187E+00 -.742E-01
   -.161E+02 -.294E+01 -.766E+01   0.171E+02 0.287E+01 0.770E+01   -.872E+00 0.655E-01 -.308E-01
   -.113E+02 0.155E+02 0.501E+01   0.117E+02 -.164E+02 -.536E+01   -.377E+00 0.791E+00 0.313E+00
   0.106E+02 0.834E+01 -.211E+01   -.110E+02 -.858E+01 0.203E+01   0.373E+00 0.262E+00 0.733E-01
   0.902E+01 -.151E+01 -.295E+01   -.860E+01 0.209E+01 0.291E+01   -.284E+00 -.432E+00 0.292E-01
   0.753E+01 0.606E+01 -.765E+01   -.816E+01 -.634E+01 0.782E+01   0.593E+00 0.194E+00 -.155E+00
   0.436E+01 0.633E+01 -.644E+01   -.448E+01 -.655E+01 0.648E+01   0.183E+00 0.137E+00 -.289E-01
   0.653E+01 0.970E+01 -.121E+02   -.812E+01 -.105E+02 0.122E+02   0.116E+01 0.633E+00 -.106E+00
   -.793E+01 0.278E+02 -.211E+02   0.934E+01 -.308E+02 0.213E+02   -.152E+01 0.341E+01 -.235E+00
   0.237E+02 -.407E+02 -.392E+02   -.226E+02 0.455E+02 0.394E+02   -.774E+00 -.452E+01 -.215E+00
   0.275E+02 -.366E+01 -.206E+02   -.277E+02 0.221E+01 0.217E+02   0.257E+00 0.100E+01 -.105E+01
   0.136E+02 0.206E+02 -.548E+01   -.150E+02 -.198E+02 0.656E+01   0.103E+01 -.361E+00 -.101E+01
   0.750E+01 0.208E+02 -.330E+01   -.691E+01 -.217E+02 0.323E+01   -.327E+00 0.913E+00 -.155E-01
   0.811E+01 0.776E+01 0.290E+01   -.836E+01 -.817E+01 -.288E+01   0.356E+00 0.381E+00 0.310E-01
   0.235E+01 0.237E+01 -.453E+01   -.221E+01 -.247E+01 0.456E+01   -.575E-01 0.769E-01 -.182E-01
   0.497E+01 0.507E+01 -.612E+01   -.515E+01 -.536E+01 0.610E+01   0.112E+00 0.212E+00 0.271E-01
   -.170E+01 0.390E+01 -.334E+01   0.162E+01 -.403E+01 0.339E+01   0.219E-01 0.138E+00 -.339E-01
   -.640E+01 0.217E+01 -.748E+01   0.656E+01 -.233E+01 0.748E+01   -.143E+00 0.116E+00 -.848E-03
   -.180E+01 0.520E+01 -.142E+02   0.179E+01 -.537E+01 0.142E+02   -.738E-01 0.172E+00 -.381E-02
   -.405E+01 0.665E+01 -.231E+02   0.469E+01 -.697E+01 0.232E+02   -.505E+00 0.314E+00 -.818E-01
   -.819E-01 0.375E+01 -.144E+02   0.223E+00 -.412E+01 0.144E+02   -.891E-01 0.438E+00 -.737E-02
   -.242E+01 0.160E+01 -.219E+02   0.239E+01 -.161E+01 0.220E+02   -.120E+00 0.902E-01 -.406E-01
   -.136E+01 0.787E+00 -.285E+02   0.179E+01 -.810E+00 0.285E+02   -.292E+00 -.975E-01 0.128E-01
   0.740E+01 -.125E+02 -.343E+02   -.773E+01 0.129E+02 0.344E+02   0.297E+00 -.484E+00 -.783E-01
   -.177E+01 -.532E+01 -.289E+02   0.186E+01 0.561E+01 0.289E+02   -.204E+00 -.268E+00 0.113E-01
   0.307E+01 -.373E+01 -.329E+02   -.287E+01 0.394E+01 0.329E+02   -.918E-01 -.163E+00 -.944E-01
   0.275E+01 -.407E+01 -.283E+02   -.277E+01 0.427E+01 0.282E+02   0.450E-01 -.130E+00 -.587E-02
   0.136E+02 -.397E+01 -.115E+02   -.140E+02 0.406E+01 0.114E+02   0.520E+00 -.117E+00 0.128E+00
   0.747E+01 -.342E+01 -.272E+02   -.762E+01 0.387E+01 0.272E+02   0.128E+00 -.323E+00 -.348E-01
   -.209E+01 -.269E+01 -.213E+02   0.216E+01 0.272E+01 0.213E+02   -.116E+00 -.659E-01 -.185E-01
   0.210E+01 -.402E+01 -.103E+02   -.223E+01 0.404E+01 0.104E+02   0.307E-01 -.619E-01 -.324E-01
   0.792E+01 0.495E+01 0.536E+00   -.827E+01 -.488E+01 -.577E+00   0.251E+00 0.481E-01 0.540E-01
   0.600E+01 0.472E+00 -.451E+01   -.600E+01 -.614E+00 0.448E+01   0.119E+00 0.576E-01 0.509E-01
   -.621E+01 0.207E+01 -.588E+01   0.642E+01 -.205E+01 0.590E+01   -.172E+00 0.618E-01 -.721E-02
   -.307E+02 0.269E+02 0.434E+02   0.357E+02 -.271E+02 -.450E+02   -.592E+01 0.315E+00 0.170E+01
   -.855E+02 -.177E+02 0.423E+02   0.949E+02 0.170E+02 -.450E+02   -.941E+01 0.415E+00 0.248E+01
   0.350E+02 -.106E+02 -.139E+02   -.382E+02 0.152E+02 0.143E+02   0.358E+01 -.523E+01 -.335E+00
   0.845E+02 0.124E+01 -.518E+02   -.950E+02 -.160E+01 0.517E+02   0.104E+02 0.344E+00 0.372E-01
   0.441E+02 0.591E+02 -.559E+01   -.493E+02 -.666E+02 0.555E+01   0.555E+01 0.755E+01 0.165E+00
   0.673E+02 -.413E+02 -.308E+02   -.877E+02 0.425E+02 0.301E+02   0.196E+02 -.121E+01 0.723E+00
   -.105E+03 -.464E+02 0.215E+03   0.124E+03 0.480E+02 -.223E+03   -.188E+02 -.208E+01 0.802E+01
   -.171E+02 -.167E+02 0.865E+02   0.151E+02 0.150E+02 -.867E+02   0.265E+01 0.287E+01 -.237E-01
   -.147E+02 -.219E+02 0.237E+03   0.106E+02 0.205E+02 -.229E+03   0.361E+01 0.187E+01 -.754E+01
 -----------------------------------------------------------------------------------------------
   -.709E+01 -.597E+01 -.314E+01   -.107E-12 0.853E-13 0.568E-13   0.700E+01 0.612E+01 0.258E+01
 
 
 POSITION                                       TOTAL-FORCE (eV/Angst)
 -----------------------------------------------------------------------------------
      2.89726     -0.00171      9.87032         0.106517      0.018139     -0.021369
      0.70982      1.22105      9.92871        -0.018759     -0.078775     -0.005463
      1.44224     -0.00648      9.90224        -0.125223      0.000303      0.008376
      3.61259      1.25048      9.84910        -0.094378     -0.076514     -0.018715
      2.86260      2.48840      9.81595        -0.004902      0.055733     -0.016541
      0.66005      3.68224      9.96087         0.159926      0.015172     -0.028068
      1.41963      2.46356      9.90296        -0.019368      0.083355     -0.006825
      2.73231      4.93115      9.73820         0.084055     -0.676326      0.028642
      0.61540      6.16502      9.99343        -0.126884     -0.005617     -0.036341
      1.32788      4.92944      9.92513        -0.053340     -0.107394     -0.073645
      3.40617      6.17876      9.55794         1.262522      0.190606     -0.424983
      2.71581      7.41977      9.74200        -0.121356      0.469677     -0.017676
      0.63145      8.64284      9.95959         0.076893     -0.127475     -0.027834
      1.31489      7.40472      9.93598         0.035973      0.126940     -0.069578
      2.84035      9.83226      9.78725        -0.300544      0.017239     -0.000137
      0.67271     11.09682      9.91117        -0.059852      0.067677      0.000769
      1.39019      9.85716      9.89223         0.126898     -0.004508     -0.001177
      3.56880     11.08763      9.81393        -0.047454      0.000352     -0.019688
      7.17629     12.31771      9.87841         0.001719      0.042019     -0.001741
      5.06782      1.27117      9.86560         0.118565      0.133274     -0.009650
      5.77634      0.00775      9.88322        -0.004965     -0.078877      0.000957
      7.95561      1.20753      9.92678         0.068522     -0.070949      0.010227
      7.24109      2.44460      9.92619        -0.375828     -0.092032     -0.036857
      7.98503      3.68702      9.97162        -0.204698      0.587822     -0.034801
      7.91893      6.08577     10.00949         0.223242      0.080146     -0.106452
      7.91157      8.56327      9.93595         0.073809     -0.411810      0.019644
      7.17464      9.84626      9.86130        -0.325945      0.386257      0.020007
      5.01872     11.09028      9.82947         0.259945      0.083014     -0.088427
      7.90628     11.08166      9.87193         0.115141     -0.014140      0.047720
     11.51327     12.30696      9.92370         0.087487     -0.021073      0.015145
      9.39010      1.19597      9.94919        -0.055417     -0.059879      0.010732
     10.07070     12.30356      9.91949        -0.063432      0.014272      0.010093
     12.27715      1.20039      9.94761         0.009637     -0.038869      0.005188
     11.53965      2.42660      9.98524        -0.083083      0.010875     -0.000214
      9.40242      3.66362     10.01608         0.107633      0.017102     -0.000494
     10.11244      2.42356      9.98881         0.046707      0.092676      0.002355
     12.24082      3.66486     10.00436        -0.155239      0.081223     -0.004788
     11.52154      4.90039     10.04470         0.119856     -0.121850     -0.022001
      9.36090      6.12134     10.05098        -0.017526     -0.141020     -0.015055
     10.09882      4.89992     10.04978        -0.117179      0.004624     -0.017684
     12.21101      6.14558     10.04035         0.107595      0.031111     -0.022809
     11.49345      7.38131     10.03444         0.035420      0.062749     -0.020712
      9.34897      8.60244      9.96338         0.112927     -0.042263      0.052747
     10.06173      7.36982     10.03135        -0.021252      0.109383     -0.030610
     12.20612      8.61870      9.98883        -0.061863     -0.038903     -0.013920
     11.49597      9.85103      9.95275        -0.091612     -0.048588     -0.003069
      9.34131     11.07791      9.90303        -0.086169      0.120735      0.016816
     10.06246      9.84212      9.93547         0.126430     -0.081443      0.018572
     12.23722     11.07832      9.92358         0.024325      0.086603      0.008874
      3.51370      3.74898      9.67484        -1.188925      0.142343      0.218002
      3.50585      8.57444      9.63124        -0.534381     -0.353022     -0.114160
      5.81577      2.49576      9.87579         0.491260     -0.913489      0.039146
      7.20511      7.32679      9.96654         0.511802      0.014915     -0.055493
      5.75390      9.87092      9.79614         0.665716      0.372771      0.130255
      7.27234      4.85601      9.94439         0.859413     -0.199788      0.024806
      4.69533      6.21746      9.19880        -1.393898     -0.729186      0.583080
      5.32694      4.35801      9.62892         0.160517      0.480474     -0.073781
      5.50932      7.99959      9.12244        -0.426980      0.534209      0.168607
 -----------------------------------------------------------------------------------
    total drift:                               -0.016379     -0.026781      0.003527


--------------------------------------------------------------------------------------------------------



  FREE ENERGIE OF THE ION-ELECTRON SYSTEM (eV)
  ---------------------------------------------------
  free  energy   TOTEN  =      -607.02131289 eV

  energy  without entropy=     -607.02131289  energy(sigma->0) =     -607.02131289
 


--------------------------------------------------------------------------------------------------------


    POTLOK:  cpu time    3.3081: real time    3.3084


--------------------------------------------------------------------------------------------------------


 stress matrix after NEB project (eV)
    -41.03335      1.64612      1.33217
      1.64744    -40.25017      0.04128
      1.32737      0.04256     -0.72107
  FORCES: max atom, RMS     1.677691    0.463272
  FORCE total and by dimension    3.528175    1.393898
  Stress total and by dimension   57.561233   41.033347
 writing wavefunctions
     LOOP+:  cpu time32177.7040: real time32189.3968
    4ORBIT:  cpu time    0.0000: real time    0.0000
 


 total charge     
 
# of ion       s       p       d       tot
------------------------------------------
    1        0.859   1.735   0.000   2.594
    2        0.864   1.757   0.000   2.621
    3        0.862   1.746   0.000   2.608
    4        0.861   1.720   0.000   2.581
    5        0.859   1.741   0.000   2.601
    6        0.867   1.774   0.000   2.641
    7        0.863   1.745   0.000   2.608
    8        0.880   1.783   0.000   2.663
    9        0.869   1.784   0.000   2.653
   10        0.874   1.781   0.000   2.654
   11        0.887   1.742   0.000   2.629
   12        0.883   1.794   0.000   2.677
   13        0.867   1.773   0.000   2.640
   14        0.875   1.787   0.000   2.661
   15        0.859   1.726   0.000   2.586
   16        0.863   1.753   0.000   2.616
   17        0.863   1.741   0.000   2.604
   18        0.863   1.723   0.000   2.587
   19        0.863   1.752   0.000   2.615
   20        0.857   1.727   0.000   2.583
   21        0.862   1.728   0.000   2.591
   22        0.866   1.759   0.000   2.625
   23        0.868   1.756   0.000   2.624
   24        0.869   1.731   0.000   2.600
   25        0.856   1.702   0.000   2.559
   26        0.863   1.718   0.000   2.581
   27        0.863   1.730   0.000   2.593
   28        0.861   1.737   0.000   2.598
   29        0.865   1.751   0.000   2.616
   30        0.865   1.762   0.000   2.627
   31        0.866   1.770   0.000   2.636
   32        0.865   1.760   0.000   2.625
   33        0.864   1.759   0.000   2.623
   34        0.867   1.772   0.000   2.639
   35        0.869   1.793   0.000   2.662
   36        0.867   1.769   0.000   2.636
   37        0.868   1.767   0.000   2.635
   38        0.867   1.779   0.000   2.646
   39        0.865   1.764   0.000   2.629
   40        0.872   1.769   0.000   2.641
   41        0.870   1.779   0.000   2.649
   42        0.865   1.768   0.000   2.633
   43        0.866   1.764   0.000   2.630
   44        0.866   1.764   0.000   2.630
   45        0.867   1.765   0.000   2.632
   46        0.865   1.766   0.000   2.631
   47        0.865   1.763   0.000   2.628
   48        0.865   1.759   0.000   2.624
   49        0.863   1.756   0.000   2.619
   50        0.875   1.664   0.000   2.539
   51        0.880   1.645   0.000   2.525
   52        0.869   1.652   0.000   2.522
   53        0.874   1.684   0.000   2.558
   54        0.879   1.675   0.000   2.555
   55        1.236   2.654   0.000   3.890
   56        1.260   2.564   0.000   3.825
   57        0.486   0.612   6.045   7.143
   58        0.536   0.722   3.515   4.773
--------------------------------------------------
tot         50.336 100.919   9.560 160.815
 


 magnetization (x)
 
# of ion       s       p       d       tot
------------------------------------------
    1        0.002   0.021   0.000   0.024
    2        0.002   0.021   0.000   0.022
    3       -0.002  -0.024   0.000  -0.026
    4       -0.003  -0.052   0.000  -0.056
    5        0.003   0.030   0.000   0.033
    6        0.002   0.020   0.000   0.022
    7       -0.003  -0.030   0.000  -0.033
    8        0.006   0.051   0.000   0.057
    9        0.002   0.031   0.000   0.034
   10       -0.003  -0.029   0.000  -0.032
   11       -0.005  -0.063   0.000  -0.068
   12        0.002   0.022   0.000   0.024
   13        0.001   0.013   0.000   0.014
   14       -0.001  -0.021   0.000  -0.022
   15        0.002   0.022   0.000   0.024
   16        0.002   0.019   0.000   0.020
   17       -0.001  -0.021   0.000  -0.022
   18       -0.003  -0.037   0.000  -0.039
   19        0.001   0.014   0.000   0.015
   20        0.003   0.028   0.000   0.031
   21       -0.001  -0.015   0.000  -0.016
   22       -0.002  -0.023   0.000  -0.026
   23        0.004   0.035   0.000   0.039
   24       -0.001  -0.022   0.000  -0.024
   25       -0.002  -0.015   0.000  -0.017
   26       -0.002  -0.021   0.000  -0.023
   27        0.001   0.013   0.000   0.014
   28        0.001   0.014   0.000   0.015
   29       -0.001  -0.018   0.000  -0.019
   30        0.001   0.015   0.000   0.016
   31        0.002   0.021   0.000   0.022
   32       -0.001  -0.015   0.000  -0.016
   33       -0.002  -0.018   0.000  -0.020
   34        0.002   0.019   0.000   0.021
   35        0.001   0.016   0.000   0.017
   36       -0.002  -0.023   0.000  -0.025
   37       -0.002  -0.020   0.000  -0.021
   38        0.002   0.022   0.000   0.024
   39        0.002   0.019   0.000   0.021
   40       -0.001  -0.012   0.000  -0.013
   41       -0.002  -0.018   0.000  -0.019
   42        0.001   0.017   0.000   0.019
   43        0.002   0.018   0.000   0.020
   44       -0.001  -0.017   0.000  -0.019
   45       -0.001  -0.017   0.000  -0.018
   46        0.001   0.017   0.000   0.019
   47        0.002   0.022   0.000   0.024
   48       -0.002  -0.019   0.000  -0.021
   49       -0.001  -0.018   0.000  -0.020
   50       -0.021  -0.124   0.000  -0.146
   51        0.009   0.006   0.000   0.015
   52       -0.019  -0.108   0.000  -0.127
   53        0.011   0.059   0.000   0.071
   54        0.010   0.024   0.000   0.034
   55        0.001   0.035   0.000   0.036
   56        0.007   0.125   0.000   0.132
   57        0.061   0.014   2.888   2.963
   58       -0.049  -0.003  -1.764  -1.816
--------------------------------------------------
tot          0.014   0.002   1.124   1.140
 

 total amount of memory used by VASP MPI-rank0   183492. kBytes
=======================================================================

   base      :      30000. kBytes
   nonl-proj :       5310. kBytes
   fftplans  :      12974. kBytes
   grid      :      33177. kBytes
   one-center:         62. kBytes
   HF        :         23. kBytes
   nonlr-proj:      26187. kBytes
   wavefun   :      75759. kBytes
 
  
  
 General timing and accounting informations for this job:
 ========================================================
  
                  Total CPU time used (sec):    32265.188
                            User time (sec):    32207.349
                          System time (sec):       57.839
                         Elapsed time (sec):    32278.134
  
                   Maximum memory used (kb):      413036.
                   Average memory used (kb):           0.
  
                          Minor page faults:      7541668
                          Major page faults:            3
                 Voluntary context switches:         1325
