 vasp.5.4.4.18Apr17-6-g9f103f2a35 (build Feb 25 2019 10:51:38) complex          
  
 executed on             LinuxIFC date 2021.08.06  13:15:26
 running on   32 total cores
 distrk:  each k-point on   32 cores,    1 groups
 distr:  one band on NCORES_PER_BAND=  32 cores,    1 groups


--------------------------------------------------------------------------------------------------------


 INCAR:
 POTCAR:    PAW_PBE C 08Apr2002                   
 POTCAR:    PAW_PBE N 08Apr2002                   
 POTCAR:    PAW_PBE Fe 06Sep2000                  
 POTCAR:    PAW_PBE Ti 08Apr2002                  

 ----------------------------------------------------------------------------- 
|                                                                             |
|           W    W    AA    RRRRR   N    N  II  N    N   GGGG   !!!           |
|           W    W   A  A   R    R  NN   N  II  NN   N  G    G  !!!           |
|           W    W  A    A  R    R  N N  N  II  N N  N  G       !!!           |
|           W WW W  AAAAAA  RRRRR   N  N N  II  N  N N  G  GGG   !            |
|           WW  WW  A    A  R   R   N   NN  II  N   NN  G    G                |
|           W    W  A    A  R    R  N    N  II  N    N   GGGG   !!!           |
|                                                                             |
|      For optimal performance we recommend to set                            |
|        NCORE= 4 - approx SQRT( number of cores)                             |
|      NCORE specifies how many cores store one orbital (NPAR=cpu/NCORE).     |
|      This setting can  greatly improve the performance of VASP for DFT.     |
|      The default,   NCORE=1            might be grossly inefficient         |
|      on modern multi-core architectures or massively parallel machines.     |
|      Do your own testing !!!!                                               |
|      Unfortunately you need to use the default for GW and RPA calculations. |
|      (for HF NCORE is supported but not extensively tested yet)             |
|                                                                             |
 ----------------------------------------------------------------------------- 

 POTCAR:    PAW_PBE C 08Apr2002                   
   VRHFIN =C: s2p2                                                              
   LEXCH  = PE                                                                  
   EATOM  =   147.1560 eV,   10.8157 Ry                                         
                                                                                
   TITEL  = PAW_PBE C 08Apr2002                                                 
   LULTRA =        F    use ultrasoft PP ?                                      
   IUNSCR =        1    unscreen: 0-lin 1-nonlin 2-no                           
   RPACOR =    1.200    partial core radius                                     
   POMASS =   12.011; ZVAL   =    4.000    mass and valenz                      
   RCORE  =    1.500    outmost cutoff radius                                   
   RWIGS  =    1.630; RWIGS  =    0.863    wigner-seitz radius (au A)           
   ENMAX  =  400.000; ENMIN  =  300.000 eV                                      
   ICORE  =        2    local potential                                         
   LCOR   =        T    correct aug charges                                     
   LPAW   =        T    paw PP                                                  
   EAUG   =  644.873                                                            
   DEXC   =    0.000                                                            
   RMAX   =    1.529    core radius for proj-oper                               
   RAUG   =    1.300    factor for augmentation sphere                          
   RDEP   =    1.501    radius for radial grids                                 
   RDEPT  =    1.300    core radius for aug-charge                              
                                                                                
   Atomic configuration                                                         
    4 entries                                                                   
     n  l   j            E        occ.                                          
     1  0  0.50      -273.3789   2.0000                                         
     2  0  0.50       -13.7508   2.0000                                         
     2  1  0.50        -5.2854   2.0000                                         
     3  2  1.50        -5.4423   0.0000                                         
   Description                                                                  
     l       E           TYP  RCUT    TYP  RCUT                                 
     0    -13.7508458     23  1.200                                             
     0     -8.2022199     23  1.200                                             
     1     -5.2854383     23  1.500                                             
     1     34.0145650     23  1.500                                             
     2     -5.4423304      7  1.500                                             
  local pseudopotential read in
  partial core-charges read in
  partial kinetic energy density read in
  atomic valenz-charges read in
  non local Contribution for L=           0  read in
    real space projection operators read in
  non local Contribution for L=           0  read in
    real space projection operators read in
  non local Contribution for L=           1  read in
    real space projection operators read in
  non local Contribution for L=           1  read in
    real space projection operators read in
    PAW grid and wavefunctions read in
 
   number of l-projection  operators is LMAX  =           4
   number of lm-projection operators is LMMAX =           8
 
 POTCAR:    PAW_PBE N 08Apr2002                   
   VRHFIN =N: s2p3                                                              
   LEXCH  = PE                                                                  
   EATOM  =   264.5486 eV,   19.4438 Ry                                         
                                                                                
   TITEL  = PAW_PBE N 08Apr2002                                                 
   LULTRA =        F    use ultrasoft PP ?                                      
   IUNSCR =        1    unscreen: 0-lin 1-nonlin 2-no                           
   RPACOR =    1.200    partial core radius                                     
   POMASS =   14.001; ZVAL   =    5.000    mass and valenz                      
   RCORE  =    1.500    outmost cutoff radius                                   
   RWIGS  =    1.400; RWIGS  =    0.741    wigner-seitz radius (au A)           
   ENMAX  =  400.000; ENMIN  =  300.000 eV                                      
   ICORE  =        2    local potential                                         
   LCOR   =        T    correct aug charges                                     
   LPAW   =        T    paw PP                                                  
   EAUG   =  627.112                                                            
   DEXC   =    0.000                                                            
   RMAX   =    1.529    core radius for proj-oper                               
   RAUG   =    1.300    factor for augmentation sphere                          
   RDEP   =    1.514    radius for radial grids                                 
   RDEPT  =    1.338    core radius for aug-charge                              
                                                                                
   Atomic configuration                                                         
    4 entries                                                                   
     n  l   j            E        occ.                                          
     1  0  0.50      -384.7179   2.0000                                         
     2  0  0.50       -18.5828   2.0000                                         
     2  1  0.50        -7.0898   3.0000                                         
     3  2  1.50        -6.8029   0.0000                                         
   Description                                                                  
     l       E           TYP  RCUT    TYP  RCUT                                 
     0    -18.5828119     23  1.200                                             
     0    -13.5018863     23  1.200                                             
     1     -7.0897853     23  1.500                                             
     1      9.5240782     23  1.500                                             
     2     -6.8029130      7  1.500                                             
  local pseudopotential read in
  partial core-charges read in
  partial kinetic energy density read in
  atomic valenz-charges read in
  non local Contribution for L=           0  read in
    real space projection operators read in
  non local Contribution for L=           0  read in
    real space projection operators read in
  non local Contribution for L=           1  read in
    real space projection operators read in
  non local Contribution for L=           1  read in
    real space projection operators read in
    PAW grid and wavefunctions read in
 
   number of l-projection  operators is LMAX  =           4
   number of lm-projection operators is LMMAX =           8
 
 POTCAR:    PAW_PBE Fe 06Sep2000                  
   VRHFIN =Fe:  d7 s1                                                           
   LEXCH  = PE                                                                  
   EATOM  =   594.3153 eV,   43.6809 Ry                                         
                                                                                
   TITEL  = PAW_PBE Fe 06Sep2000                                                
   LULTRA =        F    use ultrasoft PP ?                                      
   IUNSCR =        1    unscreen: 0-lin 1-nonlin 2-no                           
   RPACOR =    2.000    partial core radius                                     
   POMASS =   55.847; ZVAL   =    8.000    mass and valenz                      
   RCORE  =    2.300    outmost cutoff radius                                   
   RWIGS  =    2.460; RWIGS  =    1.302    wigner-seitz radius (au A)           
   ENMAX  =  267.882; ENMIN  =  200.911 eV                                      
   RCLOC  =    1.701    cutoff for local pot                                    
   LCOR   =        T    correct aug charges                                     
   LPAW   =        T    paw PP                                                  
   EAUG   =  511.368                                                            
   DEXC   =    0.000                                                            
   RMAX   =    2.356    core radius for proj-oper                               
   RAUG   =    1.300    factor for augmentation sphere                          
   RDEP   =    2.442    radius for radial grids                                 
   RDEPT  =    1.890    core radius for aug-charge                              
                                                                                
   Atomic configuration                                                         
    9 entries                                                                   
     n  l   j            E        occ.                                          
     1  0  0.50     -6993.8440   2.0000                                         
     2  0  0.50      -814.6047   2.0000                                         
     2  1  1.50      -693.3689   6.0000                                         
     3  0  0.50       -89.4732   2.0000                                         
     3  1  1.50       -55.6373   6.0000                                         
     3  2  2.50        -3.8151   7.0000                                         
     4  0  0.50        -4.2551   1.0000                                         
     4  1  1.50        -3.4015   0.0000                                         
     4  3  2.50        -1.3606   0.0000                                         
   Description                                                                  
     l       E           TYP  RCUT    TYP  RCUT                                 
     2     -3.8151135     23  2.300                                             
     2     -5.1756961     23  2.300                                             
     0     -4.2550963     23  2.300                                             
     0      7.2035603     23  2.300                                             
     1     -2.7211652     23  2.300                                             
     1     18.4316424     23  2.300                                             
  local pseudopotential read in
  partial core-charges read in
  partial kinetic energy density read in
  atomic valenz-charges read in
  non local Contribution for L=           2  read in
    real space projection operators read in
  non local Contribution for L=           2  read in
    real space projection operators read in
  non local Contribution for L=           0  read in
    real space projection operators read in
  non local Contribution for L=           0  read in
    real space projection operators read in
  non local Contribution for L=           1  read in
    real space projection operators read in
  non local Contribution for L=           1  read in
    real space projection operators read in
    PAW grid and wavefunctions read in
 
   number of l-projection  operators is LMAX  =           6
   number of lm-projection operators is LMMAX =          18
 
 POTCAR:    PAW_PBE Ti 08Apr2002                  
   VRHFIN =Ti: d3 s1                                                            
   LEXCH  = PE                                                                  
   EATOM  =    94.7928 eV,    6.9671 Ry                                         
                                                                                
   TITEL  = PAW_PBE Ti 08Apr2002                                                
   LULTRA =        F    use ultrasoft PP ?                                      
   IUNSCR =        1    unscreen: 0-lin 1-nonlin 2-no                           
   RPACOR =    2.200    partial core radius                                     
   POMASS =   47.880; ZVAL   =    4.000    mass and valenz                      
   RCORE  =    2.800    outmost cutoff radius                                   
   RWIGS  =    2.500; RWIGS  =    1.323    wigner-seitz radius (au A)           
   ENMAX  =  178.330; ENMIN  =  133.747 eV                                      
   RCLOC  =    2.215    cutoff for local pot                                    
   LCOR   =        T    correct aug charges                                     
   LPAW   =        T    paw PP                                                  
   EAUG   =  328.883                                                            
   DEXC   =    0.000                                                            
   RMAX   =    2.868    core radius for proj-oper                               
   RAUG   =    1.300    factor for augmentation sphere                          
   RDEP   =    2.885    radius for radial grids                                 
   RDEPT  =    2.320    core radius for aug-charge                              
                                                                                
   Atomic configuration                                                         
    9 entries                                                                   
     n  l   j            E        occ.                                          
     1  0  0.50     -4865.3608   2.0000                                         
     2  0  0.50      -533.1367   2.0000                                         
     2  1  1.50      -440.5031   6.0000                                         
     3  0  0.50       -59.3186   2.0000                                         
     3  1  1.50       -35.7012   6.0000                                         
     3  2  2.50        -1.9157   3.0000                                         
     4  0  0.50        -3.7291   1.0000                                         
     4  1  1.50        -4.0817   0.0000                                         
     4  3  2.50        -1.3606   0.0000                                         
   Description                                                                  
     l       E           TYP  RCUT    TYP  RCUT                                 
     2     -1.9156924     23  2.800                                             
     2     -0.4062961     23  2.800                                             
     0     -3.7290832     23  2.800                                             
     0     20.4087390     23  2.800                                             
     1     -5.4423304     23  2.800                                             
  local pseudopotential read in
  partial core-charges read in
  partial kinetic energy density read in
  atomic valenz-charges read in
  non local Contribution for L=           2  read in
    real space projection operators read in
  non local Contribution for L=           2  read in
    real space projection operators read in
  non local Contribution for L=           0  read in
    real space projection operators read in
  non local Contribution for L=           0  read in
    real space projection operators read in
  non local Contribution for L=           1  read in
    real space projection operators read in
    PAW grid and wavefunctions read in
 
   number of l-projection  operators is LMAX  =           5
   number of lm-projection operators is LMMAX =          15
 

 ----------------------------------------------------------------------------- 
|                                                                             |
|  ADVICE TO THIS USER RUNNING 'VASP/VAMP'   (HEAR YOUR MASTER'S VOICE ...):  |
|                                                                             |
|      You have a (more or less) 'large supercell' and for larger cells       |
|      it might be more efficient to use real space projection opertators     |
|      So try LREAL= Auto  in the INCAR   file.                               |
|      Mind:          For very  accurate calculation you might also keep the  |
|      reciprocal projection scheme          (i.e. LREAL=.FALSE.)             |
|                                                                             |
 ----------------------------------------------------------------------------- 

  PAW_PBE C 08Apr2002                   :
 energy of atom  1       EATOM= -147.1560
 kinetic energy error for atom=    0.0076 (will be added to EATOM!!)
  PAW_PBE N 08Apr2002                   :
 energy of atom  2       EATOM= -264.5486
 kinetic energy error for atom=    0.0138 (will be added to EATOM!!)
  PAW_PBE Fe 06Sep2000                  :
 energy of atom  3       EATOM= -594.3153
 kinetic energy error for atom=    0.0026 (will be added to EATOM!!)
  PAW_PBE Ti 08Apr2002                  :
 energy of atom  4       EATOM=  -94.7928
 kinetic energy error for atom=    0.0002 (will be added to EATOM!!)
 
 
 POSCAR:  C  N Fe Ti                             
  positions in cartesian coordinates
  No initial velocities read in
 exchange correlation table for  LEXCH =        8
   RHO(1)=    0.500       N(1)  =     2000
   RHO(2)=  100.500       N(2)  =     4000

 VTST: version 3.2, (02/03/18)

 CHAIN: initializing optimizer
 
 OPT: Using VASP Conjugate-Gradient optimizer
 CHAIN: Read ICHAIN            0
 
 POSCAR:  C  N Fe Ti                             
  positions in cartesian coordinates
  No initial velocities read in
 


--------------------------------------------------------------------------------------------------------


 ion  position               nearest neighbor table
   1  0.220  0.001  0.504-   3 1.42  20 1.43   4 1.43
   2  0.055  0.101  0.505-  34 1.43   3 1.44   7 1.44
   3  0.110  0.000  0.505-   1 1.42  18 1.43   2 1.44
   4  0.277  0.100  0.505-  22 1.42   5 1.43   1 1.43
   5  0.224  0.201  0.504-   4 1.43   7 1.43   8 1.45
   6  0.056  0.300  0.503-  38 1.43   7 1.44  11 1.45
   7  0.112  0.200  0.504-   5 1.43   6 1.44   2 1.44
   8  0.283  0.300  0.502-  51 1.43   9 1.45   5 1.45
   9  0.225  0.400  0.500-  11 1.43  12 1.45   8 1.45
  10  0.057  0.500  0.500-  42 1.43  15 1.44  11 1.44
  11  0.113  0.400  0.501-   9 1.43  10 1.44   6 1.45
  12  0.281  0.501  0.493-  55 1.35   9 1.45  13 1.45
  13  0.224  0.601  0.496-  15 1.43  16 1.44  12 1.45
  14  0.055  0.700  0.502-  46 1.43  19 1.43  15 1.44
  15  0.113  0.600  0.499-  13 1.43  10 1.44  14 1.44
  16  0.279  0.703  0.497-  56 1.38  17 1.44  13 1.44
  17  0.221  0.801  0.502-  19 1.43  20 1.43  16 1.44
  18  0.055  0.900  0.504-  50 1.42  19 1.43   3 1.43
  19  0.110  0.800  0.503-  17 1.43  14 1.43  18 1.43
  20  0.276  0.901  0.503-  28 1.43  17 1.43   1 1.43
  21  0.555  0.998  0.502-  23 1.42  30 1.43  24 1.43
  22  0.388  0.098  0.504-  26 1.41   4 1.42  23 1.43
  23  0.444  0.999  0.503-  28 1.42  21 1.42  22 1.43
  24  0.611  0.097  0.503-  25 1.42  32 1.42  21 1.43
  25  0.556  0.196  0.504-  24 1.42  52 1.42  26 1.44
  26  0.444  0.196  0.504-  22 1.41  51 1.41  25 1.44
  27  0.554  0.798  0.497-  54 1.44  30 1.44  29 1.45
  28  0.387  0.901  0.501-  29 1.41  23 1.42  20 1.43
  29  0.441  0.802  0.497-  56 1.37  28 1.41  27 1.45
  30  0.610  0.898  0.499-  21 1.43  48 1.43  27 1.44
  31  0.888  0.999  0.504-  33 1.42  50 1.43  34 1.44
  32  0.722  0.099  0.503-  24 1.42  33 1.43  37 1.43
  33  0.777  0.999  0.503-  31 1.42  32 1.43  48 1.44
  34  0.943  0.100  0.504-   2 1.43  35 1.44  31 1.44
  35  0.888  0.200  0.503-  37 1.43  34 1.44  38 1.44
  36  0.717  0.299  0.501-  52 1.43  37 1.45  41 1.45
  37  0.776  0.200  0.503-  35 1.43  32 1.43  36 1.45
  38  0.944  0.300  0.502-   6 1.43  35 1.44  39 1.44
  39  0.887  0.400  0.500-  41 1.43  42 1.44  38 1.44
  40  0.720  0.500  0.495-  53 1.40  45 1.44  41 1.45
  41  0.776  0.399  0.499-  39 1.43  40 1.45  36 1.45
  42  0.945  0.500  0.500-  10 1.43  43 1.44  39 1.44
  43  0.888  0.599  0.501-  45 1.42  46 1.44  42 1.44
  44  0.719  0.698  0.500-  54 1.42  45 1.44  49 1.44
  45  0.777  0.599  0.499-  43 1.42  40 1.44  44 1.44
  46  0.944  0.699  0.503-  14 1.43  43 1.44  47 1.44
  47  0.888  0.799  0.504-  49 1.43  50 1.43  46 1.44
  48  0.721  0.898  0.502-  30 1.43  49 1.43  33 1.44
  49  0.776  0.799  0.502-  48 1.43  47 1.43  44 1.44
  50  0.943  0.899  0.504-  18 1.42  47 1.43  31 1.43
  51  0.394  0.297  0.504-  26 1.41   8 1.43  57 1.98
  52  0.606  0.298  0.502-  25 1.42  36 1.43  57 2.01
  53  0.612  0.500  0.486-  40 1.40  57 1.83  58 2.11
  54  0.609  0.697  0.496-  44 1.42  27 1.44  58 2.11
  55  0.385  0.501  0.485-  12 1.35  57 1.83  58 1.94
  56  0.387  0.707  0.494-  29 1.37  16 1.38  58 2.05
  57  0.497  0.415  0.500-  53 1.83  55 1.83  51 1.98  52 2.01  58 2.50
  58  0.491  0.600  0.453-  55 1.94  56 2.05  53 2.11  54 2.11  57 2.50
 
  LATTYP: Found a triclinic cell.
 ALAT       =    12.4586189019
 B/A-ratio  =     1.4314472137
 C/A-ratio  =     1.5989669415
 COS(alpha) =     0.0010787221
 COS(beta)  =     0.0050173930
 COS(gamma) =     0.6962799265
  
  Lattice vectors:
  
 A1 = (  -0.0200834954,  12.4585770611,  -0.0252825931)
 A2 = (  12.7805606752,  12.4379922253,  -0.0036880150)
 A3 = (  -0.0336399295,   0.0594712628, -19.9208025850)


Analysis of symmetry for initial positions (statically):
=====================================================================
 Subroutine PRICEL returns:
 Original cell was already a primitive cell.
 

 Routine SETGRP: Setting up the symmetry group for a 
 triclinic supercell.


 Subroutine GETGRP returns: Found  1 space group operations
 (whereof  1 operations were pure point group operations)
 out of a pool of  2 trial point group operations.


The static configuration has the point symmetry C_1 .


Analysis of symmetry for dynamics (positions and initial velocities):
=====================================================================
 Subroutine PRICEL returns:
 Original cell was already a primitive cell.
 

 Routine SETGRP: Setting up the symmetry group for a 
 triclinic supercell.


 Subroutine GETGRP returns: Found  1 space group operations
 (whereof  1 operations were pure point group operations)
 out of a pool of  2 trial point group operations.


The dynamic configuration has the point symmetry C_1 .


Analysis of structural, dynamic, and magnetic symmetry:
=====================================================================
 Subroutine PRICEL returns:
 Original cell was already a primitive cell.
 

 Routine SETGRP: Setting up the symmetry group for a 
 triclinic supercell.


 Subroutine GETGRP returns: Found  1 space group operations
 (whereof  1 operations were pure point group operations)
 out of a pool of  2 trial point group operations.


The magnetic configuration has the point symmetry C_1 .


 Subroutine INISYM returns: Found  1 space group operations
 (whereof  1 operations are pure point group operations),
 and found     1 'primitive' translations

 
 
 KPOINTS: KPOINTS created by Atomic Simulation Env

Automatic generation of k-mesh.
Space group operators:
 irot       det(A)        alpha          n_x          n_y          n_z        tau_x        tau_y        tau_z
    1     1.000000     0.000001     1.000000     0.000000     0.000000     0.000000     0.000000     0.000000
 
 Subroutine IBZKPT returns following result:
 ===========================================
 
 Found      2 irreducible k-points:
 
 Following reciprocal coordinates:
            Coordinates               Weight
  0.250000  0.250000  0.000000      2.000000
 -0.250000  0.250000  0.000000      2.000000
 
 Following cartesian coordinates:
            Coordinates               Weight
  0.019563  0.020098  0.000027      2.000000
 -0.019498  0.020035  0.000093      2.000000
 
 
 Subroutine IBZKPT_HF returns following result:
 ==============================================
 
 Found      4 k-points in 1st BZ
 the following      4 k-points will be used (e.g. in the exchange kernel)
 Following reciprocal coordinates:   # in IRBZ
  0.250000  0.250000  0.000000    0.25000000   1 t-inv F
 -0.250000  0.250000  0.000000    0.25000000   2 t-inv F
 -0.250000 -0.250000 -0.000000    0.25000000   1 t-inv T
  0.250000 -0.250000 -0.000000    0.25000000   2 t-inv T


--------------------------------------------------------------------------------------------------------




 Dimension of arrays:
   k-points           NKPTS =      2   k-points in BZ     NKDIM =      4   number of bands    NBANDS=    153
   number of dos      NEDOS =    301   number of ions     NIONS =     58
   non local maximal  LDIM  =      6   non local SUM 2l+1 LMDIM =     18
   total plane-waves  NPLWV = ******
   max r-space proj   IRMAX =      1   max aug-charges    IRDMAX=  30249
   dimension x,y,z NGX =    96 NGY =   96 NGZ =  150
   dimension x,y,z NGXF=   192 NGYF=  192 NGZF=  300
   support grid    NGXF=   192 NGYF=  192 NGZF=  300
   ions per type =              54   2   1   1
   NGX,Y,Z   is equivalent  to a cutoff of  12.47, 12.81, 12.52 a.u.
   NGXF,Y,Z  is equivalent  to a cutoff of  24.94, 25.62, 25.04 a.u.

 SYSTEM =  unknown system                          
 POSCAR =   C  N Fe Ti                             

 Startparameter for this run:
   NWRITE =      2    write-flag & timer
   PREC   = accura    normal or accurate (medium, high low for compatibility)
   ISTART =      1    job   : 0-new  1-cont  2-samecut
   ICHARG =      0    charge: 1-file 2-atom 10-const
   ISPIN  =      2    spin polarized calculation?
   LNONCOLLINEAR =      F non collinear calculations
   LSORBIT =      F    spin-orbit coupling
   INIWAV =      1    electr: 0-lowe 1-rand  2-diag
   LASPH  =      T    aspherical Exc in radial PAW
   METAGGA=      F    non-selfconsistent MetaGGA calc.

 Electronic Relaxation 1
   ENCUT  =  500.0 eV  36.75 Ry    6.06 a.u.  23.34 22.71 36.32*2*pi/ulx,y,z
   ENINI  =  500.0     initial cutoff
   ENAUG  =  644.9 eV  augmentation charge cutoff
   NELM   =    250;   NELMIN=  2; NELMDL=  0     # of ELM steps 
   EDIFF  = 0.1E-03   stopping-criterion for ELM
   LREAL  =      F    real-space projection
   NLSPLINE    = F    spline interpolate recip. space projectors
   LCOMPAT=      F    compatible to vasp.4.4
   GGA_COMPAT  = T    GGA compatible to vasp.4.4-vasp.4.6
   LMAXPAW     = -100 max onsite density
   LMAXMIX     =    2 max onsite mixed and CHGCAR
   VOSKOWN=      0    Vosko Wilk Nusair interpolation
   ROPT   =    0.00000   0.00000   0.00000   0.00000
 Ionic relaxation
   EDIFFG = -.3E-01   stopping-criterion for IOM
   NSW    =      0    number of steps for IOM
   NBLOCK =      1;   KBLOCK =      1    inner block; outer block 
   IBRION =     -1    ionic relax: 0-MD 1-quasi-New 2-CG
   NFREE  =      1    steps in history (QN), initial steepest desc. (CG)
   ISIF   =      2    stress and relaxation
   IWAVPR =     10    prediction:  0-non 1-charg 2-wave 3-comb
   ISYM   =      3    0-nonsym 1-usesym 2-fastsym
   LCORR  =      T    Harris-Foulkes like correction to forces

   POTIM  = 0.5000    time-step for ionic-motion
   TEIN   =    0.0    initial temperature
   TEBEG  =    0.0;   TEEND  =   0.0 temperature during run
   SMASS  =  -3.00    Nose mass-parameter (am)
   estimated Nose-frequenzy (Omega)   =  0.10E-29 period in steps =****** mass=  -0.374E-26a.u.
   SCALEE = 1.0000    scale energy and forces
   NPACO  =    256;   APACO  = 16.0  distance and # of slots for P.C.
   PSTRESS=    0.0 pullay stress

  Mass of Ions in am
   POMASS =  12.01 14.00 55.85 47.88
  Ionic Valenz
   ZVAL   =   4.00  5.00  8.00  4.00
  Atomic Wigner-Seitz radii
   RWIGS  =  -1.00 -1.00 -1.00 -1.00
  virtual crystal weights 
   VCA    =   1.00  1.00  1.00  1.00
   NELECT =     238.0000    total number of electrons
   NUPDOWN=      -1.0000    fix difference up-down

 DOS related values:
   EMIN   =  10.00;   EMAX   =-10.00  energy-range for DOS
   EFERMI =   0.00
   ISMEAR =     0;   SIGMA  =   0.10  broadening in eV -4-tet -1-fermi 0-gaus

 Electronic relaxation 2 (details)
   IALGO  =     53    algorithm
   LDIAG  =      T    sub-space diagonalisation (order eigenvalues)
   LSUBROT=      F    optimize rotation matrix (better conditioning)
   TURBO    =      0    0=normal 1=particle mesh
   IRESTART =      0    0=no restart 2=restart with 2 vectors
   NREBOOT  =      0    no. of reboots
   NMIN     =      0    reboot dimension
   EREF     =   0.00    reference energy to select bands
   IMIX   =      4    mixing-type and parameters
     AMIX     =   0.40;   BMIX     =  1.00
     AMIX_MAG =   1.60;   BMIX_MAG =  1.00
     AMIN     =   0.10
     WC   =   100.;   INIMIX=   1;  MIXPRE=   1;  MAXMIX= -45

 Intra band minimization:
   WEIMIN = 0.0000     energy-eigenvalue tresh-hold
   EBREAK =  0.16E-06  absolut break condition
   DEPER  =   0.30     relativ break condition  

   TIME   =   0.20     timestep for ELM

  volume/ion in A,a.u.               =      54.77       369.63
  Fermi-wavevector in a.u.,A,eV,Ry     =   0.690134  1.304163  6.480241  0.476284
  Thomas-Fermi vector in A             =   1.771416
 
 Write flags
   LWAVE        =      T    write WAVECAR
   LDOWNSAMPLE  =      F    k-point downsampling of WAVECAR
   LCHARG       =      T    write CHGCAR
   LVTOT        =      F    write LOCPOT, total local potential
   LVHAR        =      F    write LOCPOT, Hartree potential only
   LELF         =      F    write electronic localiz. function (ELF)
   LORBIT       =     11    0 simple, 1 ext, 2 COOP (PROOUT), +10 PAW based schemes


 Dipole corrections
   LMONO  =      F    monopole corrections only (constant potential shift)
   LDIPOL =      T    correct potential (dipole corrections)
   IDIPOL =      3    1-x, 2-y, 3-z, 4-all directions 
   EPSILON=  1.0000000 bulk dielectric constant

 Exchange correlation treatment:
   GGA     =    PE    GGA type
   LEXCH   =     8    internal setting for exchange type
   VOSKOWN=      0    Vosko Wilk Nusair interpolation
   EXXOEP  =     0    0=HF, 1=EXX-LHF (local Hartree Fock) 2=EXX OEP
   LHFCALC =     T    Hartree Fock is set to
   LSYMGRAD=     F    symmetrize gradient (conserves proper symmetry)
   PRECFOCK=normal    Normal, Fast or Accurate (Low or Medium for compatibility)
   LRHFCALC=     F    long range Hartree Fock
   LRSCOR  =     F    long range correlation only (use DFT for short range part)
   LTHOMAS =     F    Thomas Fermi screening in HF
   LMODELHF=     F    short range full HF, long range fraction AEXX
   ENCUT4O =  -1.0   cutoff for four orbital integrals eV
   LMAXFOCK=     4    L truncation for augmentation on plane wave grid
   LMAXFOCKAE=  -1    L truncation for all-electron charge restoration on plane wave grid
   NMAXFOCKAE=   1    number of basis functions for all-electron charge restoration
   LFOCKAEDFT=     F  apply the AE augmentation even for DFT
   NKREDX  =     1    reduce k-point grid by
   NKREDY  =     1    reduce k-point grid by
   NKREDZ  =     1    reduce k-point grid by
   SHIFTRED=     F    shift reduced grid of Gamma
   HFKIDENT=     F    idential grid for each k-point
   ODDONLY =     F    use only odd q-grid points
   EVENONLY=     F    use only even q-grid points
   HFALPHA =   -1.0000 decay constant for conv. correction
   MCALPHA =    0.0000 extent of test-charge in conv. correction in multipole expansion
   AEXX    =    0.2500 exact exchange contribution
   HFSCREEN=    0.2000 screening length (either q_TF or 0.3 A-1)
   HFSCREENC=   0.2000 screening length for correlation (either q_TF or 0.3 A-1)
   HFRCUT  =    0.0000 spherical cutoff for potential kernel
   ALDAX   =    0.7500 LDA exchange part
   AGGAX   =    0.7500 GGA exchange part
   ALDAC   =    1.0000 LDA correlation
   AGGAC   =    1.0000 GGA correlation
   ENCUTFOCK=  -1.0 apply spherical cutoff to Coloumb kernel
   NBANDSGWLOW=     1    first orbital included in HF term
   NBLOCK_FOCK=    64    blocking factor in FOCK_ACC
 Linear response parameters
   LEPSILON=     F    determine dielectric tensor
   LRPA    =     F    only Hartree local field effects (RPA)
   LNABLA  =     F    use nabla operator in PAW spheres
   LVEL    =     F    velocity operator in full k-point grid
   LINTERFAST=   F  fast interpolation
   KINTER  =     0    interpolate to denser k-point grid
   CSHIFT  =0.1000    complex shift for real part using Kramers Kronig
   OMEGAMAX=  -1.0    maximum frequency
   DEG_THRESHOLD= 0.2000000E-02 threshold for treating states as degnerate
   RTIME   =   -0.100 relaxation time in fs
  (WPLASMAI=    0.000 imaginary part of plasma frequency in eV, 0.658/RTIME)
   DFIELD  = 0.0000000 0.0000000 0.0000000 field for delta impulse in time
 
 Orbital magnetization related:
   ORBITALMAG=     F  switch on orbital magnetization
   LCHIMAG   =     F  perturbation theory with respect to B field
   DQ        =  0.001000  dq finite difference perturbation B field
   LLRAUG    =     F  two centre corrections for induced B field



--------------------------------------------------------------------------------------------------------


 Static calculation
 charge density and potential will be updated during run
 spin polarized calculation
 Conjugate gradient for all bands (Freysoldt, et al. PRB 79, 241103 (2009))
 perform sub-space diagonalisation
    before iterative eigenvector-optimisation
 modified Broyden-mixing scheme, WC =      100.0
 initial mixing is a Kerker type mixing with AMIX =  0.4000 and BMIX =      1.0000
 Hartree-type preconditioning will be used
 using additional bands           34
 reciprocal scheme for non local part
 use partial core corrections
 no Harris-corrections to forces 
 use gradient corrections 
 use of overlap-Matrix (Vanderbilt PP)
 Gauss-broadening in eV      SIGMA  =   0.10


--------------------------------------------------------------------------------------------------------


  energy-cutoff  :      500.00
  volume of cell :     3176.89
      direct lattice vectors                 reciprocal lattice vectors
    12.800644171 -0.020584836  0.021594578     0.078121492  0.000125667 -0.000131547
    -0.020083495 12.458577061 -0.025282593     0.000128674  0.080266682  0.000239410
     0.033639930 -0.059471263 19.920802585    -0.000084522  0.000101735  0.050199227

  length of vectors
    12.800678937 12.458618902 19.920919761     0.078121704  0.080267142  0.050199401


 
 old parameters found on file WAVECAR:
  energy-cutoff  :      500.00
  volume of cell :     3176.89
      direct lattice vectors                 reciprocal lattice vectors
    12.722400000  0.000000000  0.000000000     0.078601522 -0.000001235 -0.000000961
     0.000195988 12.476999998  0.000000000     0.000000000  0.080147471  0.000067704
     0.000244511 -0.016906193 20.013492858     0.000000000  0.000000000  0.049966291

  length of vectors

 
 k-points in units of 2pi/SCALE and weight: KPOINTS created by Atomic Simulation Env
   0.01956254  0.02009809  0.00002697       0.500
  -0.01949820  0.02003525  0.00009274       0.500
 
 k-points in reciprocal lattice and weights: KPOINTS created by Atomic Simulation Env
   0.25000000  0.25000000  0.00000000       0.500
  -0.25000000  0.25000000  0.00000000       0.500
 
 position of ions in fractional coordinates (direct lattice) 
   0.22041646  0.00051390  0.50448573
   0.05491114  0.10061182  0.50466088
   0.10950505  0.00016945  0.50484753
   0.27679007  0.09993785  0.50471059
   0.22358711  0.20055628  0.50397702
   0.05582581  0.30027812  0.50254344
   0.11155046  0.20049450  0.50383441
   0.28276943  0.30009857  0.50229549
   0.22483561  0.39985225  0.49969529
   0.05656775  0.50015848  0.49988328
   0.11316576  0.40034507  0.50089379
   0.28057596  0.50063132  0.49315236
   0.22444120  0.60135832  0.49555066
   0.05541799  0.69970500  0.50185470
   0.11252777  0.60047006  0.49926407
   0.27917261  0.70272225  0.49725073
   0.22140950  0.80113192  0.50170612
   0.05450790  0.89967881  0.50440438
   0.11009773  0.80002428  0.50302877
   0.27576156  0.90121217  0.50258860
   0.55490423  0.99772145  0.50174426
   0.38798464  0.09780968  0.50447297
   0.44385050  0.99902921  0.50250821
   0.61118398  0.09717660  0.50320695
   0.55609696  0.19577351  0.50362437
   0.44390160  0.19551194  0.50428454
   0.55369361  0.79766043  0.49681368
   0.38707287  0.90126709  0.50075569
   0.44054201  0.80238485  0.49732816
   0.60968700  0.89816103  0.49938821
   0.88823817  0.99935213  0.50430406
   0.72215793  0.09862648  0.50309109
   0.77727668  0.99874990  0.50332329
   0.94336934  0.10021658  0.50422960
   0.88768777  0.20003929  0.50292462
   0.71745659  0.29925461  0.50096279
   0.77579245  0.19972299  0.50250294
   0.94411857  0.29995585  0.50203380
   0.88744589  0.39977319  0.50024940
   0.72022194  0.50002599  0.49521928
   0.77586951  0.39916368  0.49891842
   0.94456665  0.49970325  0.50013711
   0.88826351  0.59927959  0.50080756
   0.71922259  0.69834278  0.50008791
   0.77716650  0.59934563  0.49890405
   0.94404675  0.69940543  0.50251608
   0.88789176  0.79899923  0.50351293
   0.72122086  0.89841326  0.50177397
   0.77606701  0.79854918  0.50238828
   0.94324555  0.89919564  0.50434958
   0.39412518  0.29662084  0.50372130
   0.60601936  0.29788921  0.50236255
   0.61179834  0.49970537  0.48640527
   0.60854150  0.69704602  0.49638212
   0.38493401  0.50068992  0.48465117
   0.38651977  0.70702955  0.49384484
   0.49746762  0.41453374  0.50000366
   0.49085392  0.60047450  0.45311744
 
 position of ions in cartesian coordinates  (Angst):
   2.83843323 -0.02813723 10.05450749
   0.71785404  1.22233695 10.05189177
   1.41871486 -0.03016700 10.05932843
   3.55806249  1.20936995 10.05769044
   2.87498492  2.46407118 10.03938447
   0.72548125  3.71000198 10.00468230
   1.44084007  2.46561623 10.03412559
   3.63050098  3.70310826 10.00464822
   2.88681992  4.94724438  9.94907721
   0.73087480  6.20036985  9.94665241
   1.45740430  4.95561160  9.97052833
   3.59808827  6.20204986  9.81739254
   2.87758480  7.45797781  9.86140962
   0.71221585  8.68634202  9.98085481
   1.44516359  7.44899425  9.93298956
   3.57620360  8.71960049  9.89389553
   2.83497209  9.94656893  9.97891510
   0.69663561 11.17759823 10.02657099
   1.41017639  9.93498202 10.00288761
   3.52873318 11.19225513  9.99513816
   7.09997246 12.38892765  9.98190624
   4.98145943  1.18058125 10.05541187
   5.67841264 12.40746097  9.99469349
   7.83852490  1.16817465 10.03502767
   7.13140933  2.39766101 10.03966062
   5.69526397  2.39667246 10.05039567
   7.08832786  9.89677012  9.88871716
   4.95352690 11.19075707  9.96102757
   5.63983690  9.95792832  9.89640308
   7.80314751 11.14755885  9.93867213
  11.36691501 12.40222970 10.04005662
   9.25902990  1.18396060 10.03507948
   9.94651564 12.39706924 10.01813789
  12.09068477  1.19914975 10.06249629
  11.37587611  2.44402239 10.03277386
   9.19474881  3.68372496  9.98750800
   9.94353614  2.44241017 10.02196524
  12.09619009  3.68773197 10.01372046
  11.36867852  4.93258667  9.97442630
   9.22592166  6.18533531  9.86807654
   9.94039644  4.92736905  9.94551805
  12.09785040  6.17640397  9.97089644
  11.37515659  7.41810254  9.98051888
   9.20931025  8.65581141  9.96002799
   9.95297800  7.42132542  9.94019875
  12.08726462  8.66427811 10.01322719
  11.36647792  9.90617183 10.02935448
   9.23092800 11.14826351  9.98860044
   9.93502030  9.90293361 10.00454713
  12.07305799 11.15328728 10.04468335
   5.05604411  3.65740370 10.03554421
   7.76835496  3.66892472 10.01302043
   7.83773965  6.18409690  9.69016106
   7.79242241  8.64215431  9.88384834
   4.93365133  6.20113731  9.65029403
   4.95011533  8.77125608  9.82825667
   6.37640083  5.12452442  9.96073637
   6.28642960  7.44400623  9.02188125
 


--------------------------------------------------------------------------------------------------------


 k-point  1 :   0.2500 0.2500 0.0000  plane waves:   80650
 k-point  2 :  -0.2500 0.2500 0.0000  plane waves:   80654

 maximum and minimum number of plane-waves per node :      2544     2494

 maximum number of plane-waves:     80654
 maximum index in each direction: 
   IXMAX=   23   IYMAX=   22   IZMAX=   36
   IXMIN=  -23   IYMIN=  -22   IZMIN=  -36


 parallel 3D FFT for wavefunctions:
    minimum data exchange during FFTs selected (reduces bandwidth)
 parallel 3D FFT for charge:
    minimum data exchange during FFTs selected (reduces bandwidth)


 FFT grid for exact exchange (Hartree Fock) 
  NGX = 72; NGY = 70; NGZ =112

 
 Radii for the augmentation spheres in the non-local exchange
 for species   1 augmentation radius   0.874 (default was   0.699)
       energy cutoff for augmentation   2000.0
 for species   2 augmentation radius   0.886 (default was   0.709)
       energy cutoff for augmentation   2000.0
 for species   3 augmentation radius   1.263 (default was   1.010)
       energy cutoff for augmentation   2000.0
 for species   4 augmentation radius   1.575 (default was   1.260)
       energy cutoff for augmentation   2000.0

 real space projection operators:
  total allocation   :       2790.56 KBytes
  max/ min on nodes  :        158.70         41.06

 Maximum index for augmentation-charges in exchange          210
  SETUP_FOCK is finished

 total amount of memory used by VASP MPI-rank0   165340. kBytes
=======================================================================

   base      :      30000. kBytes
   nonl-proj :       5308. kBytes
   fftplans  :      14253. kBytes
   grid      :      36827. kBytes
   one-center:         62. kBytes
   HF        :         23. kBytes
   nonlr-proj:       3138. kBytes
   wavefun   :      75729. kBytes
 
     INWAV:  cpu time    3.5253: real time    3.5257
 Broyden mixing: mesh for mixing (old mesh)
   NGX = 47   NGY = 45   NGZ = 73
  (NGX  =192   NGY  =192   NGZ  =300)
  gives a total of 154395 points

 charge density for first step will be calculated from the start-wavefunctions


--------------------------------------------------------------------------------------------------------


 Maximum index for augmentation-charges         1145 (set IRDMAX)


--------------------------------------------------------------------------------------------------------


 initial charge from wavefunction
 First call to EWALD:  gamma=   0.121
 Maximum number of real-space cells 3x 3x 2
 Maximum number of reciprocal cells 2x 2x 4

    FEWALD:  cpu time    0.0036: real time    0.0036


--------------------------------------- Iteration      1(   1)  ---------------------------------------


    POTLOK:  cpu time    1.3783: real time    1.3787
    SETDIJ:  cpu time    2.1829: real time    2.1836
    TRIAL :  cpu time  506.6856: real time  506.7506
    CORREC:  cpu time    0.0021: real time    0.0023
    CHARGE:  cpu time    1.6373: real time    1.6373
    --------------------------------------------
      LOOP:  cpu time  511.9022: real time  511.9708

 eigenvalue-minimisations  :     0
 total energy-change (2. order) :-0.6054948E+03  (-0.4514855E+00)
 number of electron     237.9999999 magnetization       1.9997514
 augmentation part       10.5999527 magnetization       1.5046391

 DIPCOR: dipole corrections for dipol
 direction  3 min pos     1,
 dipolmoment           0.000994     -0.001757      0.588473 electrons x Angstroem
 Tr[quadrupol]     -6345.560378

 energy correction for charged system         0.000000 eV
 dipol+quadrupol energy correction            0.009901 eV
 added-field ion interaction          0.000000 eV  (added to PSCEN)


 Free energy of the ion-electron system (eV)
  ---------------------------------------------------
  alpha Z        PSCENC =        99.39184133
  Ewald energy   TEWEN  =     37036.87572684
  -Hartree energ DENC   =    -44870.99724485
  -exchange      EXHF   =       528.85318736
  -V(xc)+E(xc)   XCENC  =       572.62828314
  PAW double counting   =     25395.85753981   -25399.88024872
  entropy T*S    EENTRO =        -0.00051639
  eigenvalues    EBANDS =     -3023.21977104
  atomic energy  EATOM  =      9054.99806466
  ---------------------------------------------------
  free energy    TOTEN  =      -605.49478862 eV

  energy without entropy =     -605.49427223  energy(sigma->0) =     -605.49453043
  exchange ACFDT corr.  =        -0.00316767  see jH, gK, PRB 81, 115126


--------------------------------------------------------------------------------------------------------




--------------------------------------- Iteration      1(   2)  ---------------------------------------


    POTLOK:  cpu time    1.4016: real time    1.4016
    SETDIJ:  cpu time    2.1904: real time    2.1906
    TRIAL :  cpu time  509.2586: real time  509.3180
    CORREC:  cpu time    0.0019: real time    0.0022
    CHARGE:  cpu time    1.6477: real time    1.6478
    --------------------------------------------
      LOOP:  cpu time  514.5043: real time  514.5653

 eigenvalue-minimisations  :     0
 total energy-change (2. order) :-0.3470272E+00  (-0.3466602E+00)
 number of electron     237.9999999 magnetization       2.0001024
 augmentation part       10.5416757 magnetization       1.5490777

 DIPCOR: dipole corrections for dipol
 direction  3 min pos     1,
 dipolmoment           0.001096     -0.001938      0.649198 electrons x Angstroem
 Tr[quadrupol]     -6345.412060

 energy correction for charged system         0.000000 eV
 dipol+quadrupol energy correction            0.012050 eV
 added-field ion interaction          0.000000 eV  (added to PSCEN)


 Free energy of the ion-electron system (eV)
  ---------------------------------------------------
  alpha Z        PSCENC =        99.39399015
  Ewald energy   TEWEN  =     37036.87572684
  -Hartree energ DENC   =    -44858.14567628
  -exchange      EXHF   =       528.74885472
  -V(xc)+E(xc)   XCENC  =       572.35737968
  PAW double counting   =     25525.22797428   -25528.87630543
  entropy T*S    EENTRO =        -0.00009502
  eigenvalues    EBANDS =     -3036.42130804
  atomic energy  EATOM  =      9054.99806466
  ---------------------------------------------------
  free energy    TOTEN  =      -605.84181580 eV

  energy without entropy =     -605.84172078  energy(sigma->0) =     -605.84176829
  exchange ACFDT corr.  =        -0.00056496  see jH, gK, PRB 81, 115126


--------------------------------------------------------------------------------------------------------




--------------------------------------- Iteration      1(   3)  ---------------------------------------


    POTLOK:  cpu time    1.4126: real time    1.4126
    SETDIJ:  cpu time    2.1880: real time    2.1880
    TRIAL :  cpu time  509.5415: real time  509.6221
    CORREC:  cpu time    0.0019: real time    0.0021
    CHARGE:  cpu time    1.6371: real time    1.6376
    --------------------------------------------
      LOOP:  cpu time  514.7839: real time  514.8653

 eigenvalue-minimisations  :     0
 total energy-change (2. order) :-0.2608507E+00  (-0.1949883E+00)
 number of electron     237.9999999 magnetization       2.0000253
 augmentation part       10.5274966 magnetization       1.5918685

 DIPCOR: dipole corrections for dipol
 direction  3 min pos     1,
 dipolmoment           0.001096     -0.001938      0.649213 electrons x Angstroem
 Tr[quadrupol]     -6345.213744

 energy correction for charged system         0.000000 eV
 dipol+quadrupol energy correction            0.012050 eV
 added-field ion interaction          0.000000 eV  (added to PSCEN)


 Free energy of the ion-electron system (eV)
  ---------------------------------------------------
  alpha Z        PSCENC =        99.39399070
  Ewald energy   TEWEN  =     37036.87572684
  -Hartree energ DENC   =    -44840.90913432
  -exchange      EXHF   =       528.58767762
  -V(xc)+E(xc)   XCENC  =       571.96290195
  PAW double counting   =     25687.17857183   -25690.40608320
  entropy T*S    EENTRO =        -0.00002044
  eigenvalues    EBANDS =     -3053.78428753
  atomic energy  EATOM  =      9054.99806466
  ---------------------------------------------------
  free energy    TOTEN  =      -606.10266646 eV

  energy without entropy =     -606.10264603  energy(sigma->0) =     -606.10265625
  exchange ACFDT corr.  =        -0.00007742  see jH, gK, PRB 81, 115126


--------------------------------------------------------------------------------------------------------




--------------------------------------- Iteration      1(   4)  ---------------------------------------


    POTLOK:  cpu time    1.4075: real time    1.4080
    SETDIJ:  cpu time    2.2139: real time    2.2142
    TRIAL :  cpu time  505.8970: real time  505.9820
    CORREC:  cpu time    0.0018: real time    0.0021
    CHARGE:  cpu time    1.6358: real time    1.6359
    --------------------------------------------
      LOOP:  cpu time  511.1586: real time  511.2448

 eigenvalue-minimisations  :     0
 total energy-change (2. order) :-0.1463754E+00  (-0.1039023E+00)
 number of electron     237.9999999 magnetization       2.0000067
 augmentation part       10.5346934 magnetization       1.6256101

 DIPCOR: dipole corrections for dipol
 direction  3 min pos     1,
 dipolmoment           0.001044     -0.001846      0.618427 electrons x Angstroem
 Tr[quadrupol]     -6345.111046

 energy correction for charged system         0.000000 eV
 dipol+quadrupol energy correction            0.010935 eV
 added-field ion interaction          0.000000 eV  (added to PSCEN)


 Free energy of the ion-electron system (eV)
  ---------------------------------------------------
  alpha Z        PSCENC =        99.39287495
  Ewald energy   TEWEN  =     37036.87572684
  -Hartree energ DENC   =    -44831.23791998
  -exchange      EXHF   =       528.57736209
  -V(xc)+E(xc)   XCENC  =       571.73150482
  PAW double counting   =     25823.74457714   -25826.91322295
  entropy T*S    EENTRO =        -0.00000485
  eigenvalues    EBANDS =     -3063.41798898
  atomic energy  EATOM  =      9054.99806466
  ---------------------------------------------------
  free energy    TOTEN  =      -606.24904184 eV

  energy without entropy =     -606.24903699  energy(sigma->0) =     -606.24903942
  exchange ACFDT corr.  =        -0.00001256  see jH, gK, PRB 81, 115126


--------------------------------------------------------------------------------------------------------




--------------------------------------- Iteration      1(   5)  ---------------------------------------


    POTLOK:  cpu time    1.4088: real time    1.4088
    SETDIJ:  cpu time    2.1836: real time    2.1838
    TRIAL :  cpu time  504.9589: real time  505.0155
    CORREC:  cpu time    0.0016: real time    0.0019
    CHARGE:  cpu time    1.6358: real time    1.6359
    --------------------------------------------
      LOOP:  cpu time  510.1909: real time  510.2481

 eigenvalue-minimisations  :     0
 total energy-change (2. order) :-0.8173597E-01  (-0.6801450E-01)
 number of electron     237.9999999 magnetization       2.0000024
 augmentation part       10.5392276 magnetization       1.6505164

 DIPCOR: dipole corrections for dipol
 direction  3 min pos     1,
 dipolmoment           0.001027     -0.001816      0.608314 electrons x Angstroem
 Tr[quadrupol]     -6345.126578

 energy correction for charged system         0.000000 eV
 dipol+quadrupol energy correction            0.010580 eV
 added-field ion interaction          0.000000 eV  (added to PSCEN)


 Free energy of the ion-electron system (eV)
  ---------------------------------------------------
  alpha Z        PSCENC =        99.39252025
  Ewald energy   TEWEN  =     37036.87572684
  -Hartree energ DENC   =    -44831.11019625
  -exchange      EXHF   =       528.76037029
  -V(xc)+E(xc)   XCENC  =       571.74194059
  PAW double counting   =     25920.82351235   -25924.14006048
  entropy T*S    EENTRO =        -0.00000132
  eigenvalues    EBANDS =     -3063.67265122
  atomic energy  EATOM  =      9054.99806466
  ---------------------------------------------------
  free energy    TOTEN  =      -606.33077781 eV

  energy without entropy =     -606.33077649  energy(sigma->0) =     -606.33077715
  exchange ACFDT corr.  =        -0.00000211  see jH, gK, PRB 81, 115126


--------------------------------------------------------------------------------------------------------




--------------------------------------- Iteration      1(   6)  ---------------------------------------


    POTLOK:  cpu time    1.4057: real time    1.4058
    SETDIJ:  cpu time    2.2137: real time    2.2137
    TRIAL :  cpu time  505.0923: real time  505.1952
    CORREC:  cpu time    0.0016: real time    0.0018
    CHARGE:  cpu time    1.6377: real time    1.6377
    --------------------------------------------
      LOOP:  cpu time  510.3531: real time  510.4564

 eigenvalue-minimisations  :     0
 total energy-change (2. order) :-0.5647623E-01  (-0.4820057E-01)
 number of electron     237.9999999 magnetization       2.0000011
 augmentation part       10.5393606 magnetization       1.6697985

 DIPCOR: dipole corrections for dipol
 direction  3 min pos     1,
 dipolmoment           0.001047     -0.001851      0.620020 electrons x Angstroem
 Tr[quadrupol]     -6345.193374

 energy correction for charged system         0.000000 eV
 dipol+quadrupol energy correction            0.010991 eV
 added-field ion interaction          0.000000 eV  (added to PSCEN)


 Free energy of the ion-electron system (eV)
  ---------------------------------------------------
  alpha Z        PSCENC =        99.39293135
  Ewald energy   TEWEN  =     37036.87572684
  -Hartree energ DENC   =    -44835.26779162
  -exchange      EXHF   =       529.02161876
  -V(xc)+E(xc)   XCENC  =       571.87824692
  PAW double counting   =     25982.20448909   -25985.60284445
  entropy T*S    EENTRO =        -0.00000042
  eigenvalues    EBANDS =     -3059.88769428
  atomic energy  EATOM  =      9054.99806466
  ---------------------------------------------------
  free energy    TOTEN  =      -606.38725404 eV

  energy without entropy =     -606.38725362  energy(sigma->0) =     -606.38725383
  exchange ACFDT corr.  =        -0.00000049  see jH, gK, PRB 81, 115126


--------------------------------------------------------------------------------------------------------




--------------------------------------- Iteration      1(   7)  ---------------------------------------


    POTLOK:  cpu time    1.4075: real time    1.4077
    SETDIJ:  cpu time    2.2136: real time    2.2137
    TRIAL :  cpu time  504.2132: real time  504.2846
    CORREC:  cpu time    0.0016: real time    0.0019
    CHARGE:  cpu time    1.6304: real time    1.6304
    --------------------------------------------
      LOOP:  cpu time  509.4689: real time  509.5410

 eigenvalue-minimisations  :     0
 total energy-change (2. order) :-0.4037652E-01  (-0.3288748E-01)
 number of electron     237.9999999 magnetization       2.0000006
 augmentation part       10.5412318 magnetization       1.6864032

 DIPCOR: dipole corrections for dipol
 direction  3 min pos     1,
 dipolmoment           0.001071     -0.001893      0.633995 electrons x Angstroem
 Tr[quadrupol]     -6345.253121

 energy correction for charged system         0.000000 eV
 dipol+quadrupol energy correction            0.011492 eV
 added-field ion interaction          0.000000 eV  (added to PSCEN)


 Free energy of the ion-electron system (eV)
  ---------------------------------------------------
  alpha Z        PSCENC =        99.39343241
  Ewald energy   TEWEN  =     37036.87572684
  -Hartree energ DENC   =    -44839.30917339
  -exchange      EXHF   =       529.25199050
  -V(xc)+E(xc)   XCENC  =       572.02193198
  PAW double counting   =     26017.21212370   -26020.60682200
  entropy T*S    EENTRO =        -0.00000017
  eigenvalues    EBANDS =     -3056.26490484
  atomic energy  EATOM  =      9054.99806466
  ---------------------------------------------------
  free energy    TOTEN  =      -606.42763057 eV

  energy without entropy =     -606.42763040  energy(sigma->0) =     -606.42763048
  exchange ACFDT corr.  =        -0.00000014  see jH, gK, PRB 81, 115126


--------------------------------------------------------------------------------------------------------




--------------------------------------- Iteration      1(   8)  ---------------------------------------


    POTLOK:  cpu time    1.4041: real time    1.4042
    SETDIJ:  cpu time    2.1830: real time    2.1831
    TRIAL :  cpu time  504.1759: real time  504.2521
    CORREC:  cpu time    0.0016: real time    0.0018
    CHARGE:  cpu time    1.6329: real time    1.6329
    --------------------------------------------
      LOOP:  cpu time  509.3997: real time  509.4764

 eigenvalue-minimisations  :     0
 total energy-change (2. order) :-0.2854930E-01  (-0.2418339E-01)
 number of electron     237.9999999 magnetization       2.0000005
 augmentation part       10.5462316 magnetization       1.7017003

 DIPCOR: dipole corrections for dipol
 direction  3 min pos     1,
 dipolmoment           0.001079     -0.001908      0.639241 electrons x Angstroem
 Tr[quadrupol]     -6345.284667

 energy correction for charged system         0.000000 eV
 dipol+quadrupol energy correction            0.011683 eV
 added-field ion interaction          0.000000 eV  (added to PSCEN)


 Free energy of the ion-electron system (eV)
  ---------------------------------------------------
  alpha Z        PSCENC =        99.39362335
  Ewald energy   TEWEN  =     37036.87572684
  -Hartree energ DENC   =    -44841.66484388
  -exchange      EXHF   =       529.40899704
  -V(xc)+E(xc)   XCENC  =       572.12127569
  PAW double counting   =     26034.94289665   -26038.34135805
  entropy T*S    EENTRO =        -0.00000008
  eigenvalues    EBANDS =     -3054.19056201
  atomic energy  EATOM  =      9054.99806466
  ---------------------------------------------------
  free energy    TOTEN  =      -606.45617987 eV

  energy without entropy =     -606.45617979  energy(sigma->0) =     -606.45617983
  exchange ACFDT corr.  =        -0.00000005  see jH, gK, PRB 81, 115126


--------------------------------------------------------------------------------------------------------




--------------------------------------- Iteration      1(   9)  ---------------------------------------


    POTLOK:  cpu time    1.4041: real time    1.4042
    SETDIJ:  cpu time    2.2133: real time    2.2135
    TRIAL :  cpu time  504.1963: real time  504.4665
    CORREC:  cpu time    0.0015: real time    0.0018
    CHARGE:  cpu time    1.6314: real time    1.6319
    --------------------------------------------
      LOOP:  cpu time  509.4489: real time  509.7201

 eigenvalue-minimisations  :     0
 total energy-change (2. order) :-0.2186576E-01  (-0.1867682E-01)
 number of electron     237.9999999 magnetization       2.0000004
 augmentation part       10.5514761 magnetization       1.7159324

 DIPCOR: dipole corrections for dipol
 direction  3 min pos     1,
 dipolmoment           0.001075     -0.001900      0.636398 electrons x Angstroem
 Tr[quadrupol]     -6345.292113

 energy correction for charged system         0.000000 eV
 dipol+quadrupol energy correction            0.011579 eV
 added-field ion interaction          0.000000 eV  (added to PSCEN)


 Free energy of the ion-electron system (eV)
  ---------------------------------------------------
  alpha Z        PSCENC =        99.39351967
  Ewald energy   TEWEN  =     37036.87572684
  -Hartree energ DENC   =    -44842.47772677
  -exchange      EXHF   =       529.49995920
  -V(xc)+E(xc)   XCENC  =       572.17470681
  PAW double counting   =     26042.77982481   -26046.22175523
  entropy T*S    EENTRO =        -0.00000004
  eigenvalues    EBANDS =     -3053.50036553
  atomic energy  EATOM  =      9054.99806466
  ---------------------------------------------------
  free energy    TOTEN  =      -606.47804563 eV

  energy without entropy =     -606.47804559  energy(sigma->0) =     -606.47804561
  exchange ACFDT corr.  =        -0.00000002  see jH, gK, PRB 81, 115126


--------------------------------------------------------------------------------------------------------




--------------------------------------- Iteration      1(  10)  ---------------------------------------


    POTLOK:  cpu time    1.3974: real time    1.3980
    SETDIJ:  cpu time    2.2128: real time    2.2131
    TRIAL :  cpu time  503.3867: real time  503.4876
    CORREC:  cpu time    0.0014: real time    0.0016
    CHARGE:  cpu time    1.6305: real time    1.6311
    --------------------------------------------
      LOOP:  cpu time  508.6311: real time  508.7338

 eigenvalue-minimisations  :     0
 total energy-change (2. order) :-0.1718064E-01  (-0.1454394E-01)
 number of electron     237.9999999 magnetization       2.0000004
 augmentation part       10.5544833 magnetization       1.7290232

 DIPCOR: dipole corrections for dipol
 direction  3 min pos     1,
 dipolmoment           0.001066     -0.001884      0.630977 electrons x Angstroem
 Tr[quadrupol]     -6345.287636

 energy correction for charged system         0.000000 eV
 dipol+quadrupol energy correction            0.011383 eV
 added-field ion interaction          0.000000 eV  (added to PSCEN)


 Free energy of the ion-electron system (eV)
  ---------------------------------------------------
  alpha Z        PSCENC =        99.39332325
  Ewald energy   TEWEN  =     37036.87572684
  -Hartree energ DENC   =    -44842.42523591
  -exchange      EXHF   =       529.55098802
  -V(xc)+E(xc)   XCENC  =       572.20029306
  PAW double counting   =     26045.58123584   -26049.07884737
  entropy T*S    EENTRO =        -0.00000003
  eigenvalues    EBANDS =     -3053.59077462
  atomic energy  EATOM  =      9054.99806466
  ---------------------------------------------------
  free energy    TOTEN  =      -606.49522627 eV

  energy without entropy =     -606.49522624  energy(sigma->0) =     -606.49522626
  exchange ACFDT corr.  =        -0.00000001  see jH, gK, PRB 81, 115126


--------------------------------------------------------------------------------------------------------




--------------------------------------- Iteration      1(  11)  ---------------------------------------


    POTLOK:  cpu time    1.3954: real time    1.3960
    SETDIJ:  cpu time    2.1859: real time    2.1864
    TRIAL :  cpu time  503.7354: real time  503.9768
    CORREC:  cpu time    0.0014: real time    0.0017
    CHARGE:  cpu time    1.6327: real time    1.6333
    --------------------------------------------
      LOOP:  cpu time  508.9534: real time  509.1968

 eigenvalue-minimisations  :     0
 total energy-change (2. order) :-0.1351817E-01  (-0.1164716E-01)
 number of electron     237.9999999 magnetization       2.0000003
 augmentation part       10.5552068 magnetization       1.7409336

 DIPCOR: dipole corrections for dipol
 direction  3 min pos     1,
 dipolmoment           0.001060     -0.001874      0.627612 electrons x Angstroem
 Tr[quadrupol]     -6345.281435

 energy correction for charged system         0.000000 eV
 dipol+quadrupol energy correction            0.011262 eV
 added-field ion interaction          0.000000 eV  (added to PSCEN)


 Free energy of the ion-electron system (eV)
  ---------------------------------------------------
  alpha Z        PSCENC =        99.39320215
  Ewald energy   TEWEN  =     37036.87572684
  -Hartree energ DENC   =    -44842.13264156
  -exchange      EXHF   =       529.58610947
  -V(xc)+E(xc)   XCENC  =       572.21634520
  PAW double counting   =     26046.25140705   -26049.78796949
  entropy T*S    EENTRO =        -0.00000002
  eigenvalues    EBANDS =     -3053.90898875
  atomic energy  EATOM  =      9054.99806466
  ---------------------------------------------------
  free energy    TOTEN  =      -606.50874444 eV

  energy without entropy =     -606.50874443  energy(sigma->0) =     -606.50874443
  exchange ACFDT corr.  =        -0.00000001  see jH, gK, PRB 81, 115126


--------------------------------------------------------------------------------------------------------




--------------------------------------- Iteration      1(  12)  ---------------------------------------


    POTLOK:  cpu time    1.3922: real time    1.3927
    SETDIJ:  cpu time    2.1896: real time    2.2026
    TRIAL :  cpu time  503.4517: real time  503.6417
    CORREC:  cpu time    0.0014: real time    0.0017
    CHARGE:  cpu time    1.6393: real time    1.6393
    --------------------------------------------
      LOOP:  cpu time  508.6763: real time  508.8800

 eigenvalue-minimisations  :     0
 total energy-change (2. order) :-0.1086692E-01  (-0.9525326E-02)
 number of electron     237.9999999 magnetization       2.0000003
 augmentation part       10.5551025 magnetization       1.7516816

 DIPCOR: dipole corrections for dipol
 direction  3 min pos     1,
 dipolmoment           0.001059     -0.001873      0.627358 electrons x Angstroem
 Tr[quadrupol]     -6345.277680

 energy correction for charged system         0.000000 eV
 dipol+quadrupol energy correction            0.011253 eV
 added-field ion interaction          0.000000 eV  (added to PSCEN)


 Free energy of the ion-electron system (eV)
  ---------------------------------------------------
  alpha Z        PSCENC =        99.39319303
  Ewald energy   TEWEN  =     37036.87572684
  -Hartree energ DENC   =    -44841.91181579
  -exchange      EXHF   =       529.61762110
  -V(xc)+E(xc)   XCENC  =       572.23218177
  PAW double counting   =     26046.53825239   -26050.09363996
  entropy T*S    EENTRO =        -0.00000001
  eigenvalues    EBANDS =     -3054.16919539
  atomic energy  EATOM  =      9054.99806466
  ---------------------------------------------------
  free energy    TOTEN  =      -606.51961136 eV

  energy without entropy =     -606.51961135  energy(sigma->0) =     -606.51961136
  exchange ACFDT corr.  =        -0.00000000  see jH, gK, PRB 81, 115126


--------------------------------------------------------------------------------------------------------




--------------------------------------- Iteration      1(  13)  ---------------------------------------


    POTLOK:  cpu time    1.3858: real time    1.3859
    SETDIJ:  cpu time    2.1811: real time    2.1812
    TRIAL :  cpu time  503.9750: real time  504.0715
    CORREC:  cpu time    0.0013: real time    0.0016
    CHARGE:  cpu time    1.6416: real time    1.6420
    --------------------------------------------
      LOOP:  cpu time  509.1873: real time  509.2847

 eigenvalue-minimisations  :     0
 total energy-change (2. order) :-0.8914665E-02  (-0.7910355E-02)
 number of electron     237.9999999 magnetization       2.0000003
 augmentation part       10.5553104 magnetization       1.7613409

 DIPCOR: dipole corrections for dipol
 direction  3 min pos     1,
 dipolmoment           0.001061     -0.001876      0.628405 electrons x Angstroem
 Tr[quadrupol]     -6345.276332

 energy correction for charged system         0.000000 eV
 dipol+quadrupol energy correction            0.011290 eV
 added-field ion interaction          0.000000 eV  (added to PSCEN)


 Free energy of the ion-electron system (eV)
  ---------------------------------------------------
  alpha Z        PSCENC =        99.39323062
  Ewald energy   TEWEN  =     37036.87572684
  -Hartree energ DENC   =    -44841.81682230
  -exchange      EXHF   =       529.64785192
  -V(xc)+E(xc)   XCENC  =       572.24901745
  PAW double counting   =     26047.06269895   -26050.63049876
  entropy T*S    EENTRO =        -0.00000001
  eigenvalues    EBANDS =     -3054.30779540
  atomic energy  EATOM  =      9054.99806466
  ---------------------------------------------------
  free energy    TOTEN  =      -606.52852603 eV

  energy without entropy =     -606.52852602  energy(sigma->0) =     -606.52852603
  exchange ACFDT corr.  =        -0.00000000  see jH, gK, PRB 81, 115126


--------------------------------------------------------------------------------------------------------




--------------------------------------- Iteration      1(  14)  ---------------------------------------


    POTLOK:  cpu time    1.3843: real time    1.3850
    SETDIJ:  cpu time    2.2099: real time    2.2102
    TRIAL :  cpu time  503.6162: real time  503.8649
    CORREC:  cpu time    0.0014: real time    0.0017
    CHARGE:  cpu time    1.6343: real time    1.6347
    --------------------------------------------
      LOOP:  cpu time  508.8485: real time  509.0989

 eigenvalue-minimisations  :     0
 total energy-change (2. order) :-0.7478456E-02  (-0.6691327E-02)
 number of electron     237.9999999 magnetization       2.0000003
 augmentation part       10.5559545 magnetization       1.7700343

 DIPCOR: dipole corrections for dipol
 direction  3 min pos     1,
 dipolmoment           0.001062     -0.001877      0.628870 electrons x Angstroem
 Tr[quadrupol]     -6345.276000

 energy correction for charged system         0.000000 eV
 dipol+quadrupol energy correction            0.011307 eV
 added-field ion interaction          0.000000 eV  (added to PSCEN)


 Free energy of the ion-electron system (eV)
  ---------------------------------------------------
  alpha Z        PSCENC =        99.39324736
  Ewald energy   TEWEN  =     37036.87572684
  -Hartree energ DENC   =    -44841.78877504
  -exchange      EXHF   =       529.67553459
  -V(xc)+E(xc)   XCENC  =       572.26504950
  PAW double counting   =     26047.88614932   -26051.47057389
  entropy T*S    EENTRO =        -0.00000001
  eigenvalues    EBANDS =     -3054.37042782
  atomic energy  EATOM  =      9054.99806466
  ---------------------------------------------------
  free energy    TOTEN  =      -606.53600449 eV

  energy without entropy =     -606.53600448  energy(sigma->0) =     -606.53600448
  exchange ACFDT corr.  =        -0.00000000  see jH, gK, PRB 81, 115126


--------------------------------------------------------------------------------------------------------




--------------------------------------- Iteration      1(  15)  ---------------------------------------


    POTLOK:  cpu time    1.3797: real time    1.3801
    SETDIJ:  cpu time    2.1812: real time    2.1815
    TRIAL :  cpu time  503.0734: real time  503.3157
    CORREC:  cpu time    0.0013: real time    0.0016
    CHARGE:  cpu time    1.6280: real time    1.6287
    --------------------------------------------
      LOOP:  cpu time  508.2662: real time  508.5103

 eigenvalue-minimisations  :     0
 total energy-change (2. order) :-0.6401593E-02  (-0.5740869E-02)
 number of electron     237.9999999 magnetization       2.0000003
 augmentation part       10.5566253 magnetization       1.7778861

 DIPCOR: dipole corrections for dipol
 direction  3 min pos     1,
 dipolmoment           0.001061     -0.001876      0.628295 electrons x Angstroem
 Tr[quadrupol]     -6345.275611

 energy correction for charged system         0.000000 eV
 dipol+quadrupol energy correction            0.011286 eV
 added-field ion interaction          0.000000 eV  (added to PSCEN)


 Free energy of the ion-electron system (eV)
  ---------------------------------------------------
  alpha Z        PSCENC =        99.39322669
  Ewald energy   TEWEN  =     37036.87572684
  -Hartree energ DENC   =    -44841.76220482
  -exchange      EXHF   =       529.69986371
  -V(xc)+E(xc)   XCENC  =       572.27902959
  PAW double counting   =     26049.00003995   -26052.60509603
  entropy T*S    EENTRO =        -0.00000000
  eigenvalues    EBANDS =     -3054.42105667
  atomic energy  EATOM  =      9054.99806466
  ---------------------------------------------------
  free energy    TOTEN  =      -606.54240608 eV

  energy without entropy =     -606.54240607  energy(sigma->0) =     -606.54240608
  exchange ACFDT corr.  =        -0.00000000  see jH, gK, PRB 81, 115126


--------------------------------------------------------------------------------------------------------




--------------------------------------- Iteration      1(  16)  ---------------------------------------


    POTLOK:  cpu time    1.3781: real time    1.3785
    SETDIJ:  cpu time    2.1793: real time    2.1796
    TRIAL :  cpu time  503.0249: real time  503.2937
    CORREC:  cpu time    0.0012: real time    0.0015
    CHARGE:  cpu time    1.6283: real time    1.6288
    --------------------------------------------
      LOOP:  cpu time  508.2137: real time  508.4840

 eigenvalue-minimisations  :     0
 total energy-change (2. order) :-0.5538042E-02  (-0.4983687E-02)
 number of electron     237.9999999 magnetization       2.0000003
 augmentation part       10.5570177 magnetization       1.7849856

 DIPCOR: dipole corrections for dipol
 direction  3 min pos     1,
 dipolmoment           0.001059     -0.001873      0.627263 electrons x Angstroem
 Tr[quadrupol]     -6345.274953

 energy correction for charged system         0.000000 eV
 dipol+quadrupol energy correction            0.011249 eV
 added-field ion interaction          0.000000 eV  (added to PSCEN)


 Free energy of the ion-electron system (eV)
  ---------------------------------------------------
  alpha Z        PSCENC =        99.39318964
  Ewald energy   TEWEN  =     37036.87572684
  -Hartree energ DENC   =    -44841.71769771
  -exchange      EXHF   =       529.72146626
  -V(xc)+E(xc)   XCENC  =       572.29124936
  PAW double counting   =     26050.36950864   -26053.99431719
  entropy T*S    EENTRO =        -0.00000000
  eigenvalues    EBANDS =     -3054.48513462
  atomic energy  EATOM  =      9054.99806466
  ---------------------------------------------------
  free energy    TOTEN  =      -606.54794412 eV

  energy without entropy =     -606.54794412  energy(sigma->0) =     -606.54794412
  exchange ACFDT corr.  =        -0.00000000  see jH, gK, PRB 81, 115126


--------------------------------------------------------------------------------------------------------




--------------------------------------- Iteration      1(  17)  ---------------------------------------


    POTLOK:  cpu time    1.3767: real time    1.3773
    SETDIJ:  cpu time    2.1786: real time    2.1789
    TRIAL :  cpu time  503.7063: real time  503.9511
    CORREC:  cpu time    0.0013: real time    0.0016
    CHARGE:  cpu time    1.6280: real time    1.6285
    --------------------------------------------
      LOOP:  cpu time  508.8934: real time  509.1397

 eigenvalue-minimisations  :     0
 total energy-change (2. order) :-0.4825912E-02  (-0.4375375E-02)
 number of electron     237.9999999 magnetization       2.0000003
 augmentation part       10.5571257 magnetization       1.7914079

 DIPCOR: dipole corrections for dipol
 direction  3 min pos     1,
 dipolmoment           0.001058     -0.001870      0.626435 electrons x Angstroem
 Tr[quadrupol]     -6345.274174

 energy correction for charged system         0.000000 eV
 dipol+quadrupol energy correction            0.011220 eV
 added-field ion interaction          0.000000 eV  (added to PSCEN)


 Free energy of the ion-electron system (eV)
  ---------------------------------------------------
  alpha Z        PSCENC =        99.39315994
  Ewald energy   TEWEN  =     37036.87572684
  -Hartree energ DENC   =    -44841.66435050
  -exchange      EXHF   =       529.74131083
  -V(xc)+E(xc)   XCENC  =       572.30254579
  PAW double counting   =     26051.87055112   -26055.51142063
  entropy T*S    EENTRO =        -0.00000000
  eigenvalues    EBANDS =     -3054.55835809
  atomic energy  EATOM  =      9054.99806466
  ---------------------------------------------------
  free energy    TOTEN  =      -606.55277003 eV

  energy without entropy =     -606.55277003  energy(sigma->0) =     -606.55277003
  exchange ACFDT corr.  =        -0.00000000  see jH, gK, PRB 81, 115126


--------------------------------------------------------------------------------------------------------




--------------------------------------- Iteration      1(  18)  ---------------------------------------


    POTLOK:  cpu time    1.3735: real time    1.3741
    SETDIJ:  cpu time    2.2103: real time    2.2106
    TRIAL :  cpu time  503.7314: real time  503.9606
    CORREC:  cpu time    0.0012: real time    0.0015
    CHARGE:  cpu time    1.6258: real time    1.6264
    --------------------------------------------
      LOOP:  cpu time  508.9448: real time  509.1758

 eigenvalue-minimisations  :     0
 total energy-change (2. order) :-0.4242460E-02  (-0.3880110E-02)
 number of electron     237.9999999 magnetization       2.0000003
 augmentation part       10.5571048 magnetization       1.7972305

 DIPCOR: dipole corrections for dipol
 direction  3 min pos     1,
 dipolmoment           0.001057     -0.001869      0.625980 electrons x Angstroem
 Tr[quadrupol]     -6345.273309

 energy correction for charged system         0.000000 eV
 dipol+quadrupol energy correction            0.011203 eV
 added-field ion interaction          0.000000 eV  (added to PSCEN)


 Free energy of the ion-electron system (eV)
  ---------------------------------------------------
  alpha Z        PSCENC =        99.39314365
  Ewald energy   TEWEN  =     37036.87572684
  -Hartree energ DENC   =    -44841.60759190
  -exchange      EXHF   =       529.75973091
  -V(xc)+E(xc)   XCENC  =       572.31326784
  PAW double counting   =     26053.33862658   -26056.99226676
  entropy T*S    EENTRO =        -0.00000000
  eigenvalues    EBANDS =     -3054.63571431
  atomic energy  EATOM  =      9054.99806466
  ---------------------------------------------------
[...]
  augment    24.58210    21.91840    20.72028     0.17811    -1.54938    -0.02220
  Kinetic  3475.77422  3505.55720  3949.91064    -2.94669    -2.50669     1.49656
  Fock     -280.27152  -277.06584  -251.78647    -0.12246     0.51710    -0.40792
  -------------------------------------------------------------------------------------
  Total     -44.46844   -42.05884    -0.83330     0.23619    -0.08407    -0.15865
  in kB     -22.42644   -21.21123    -0.42025     0.11911    -0.04240    -0.08001
  external pressure =      -14.69 kB  Pullay stress =        0.00 kB


 VOLUME and BASIS-vectors are now :
 -----------------------------------------------------------------------------
  energy-cutoff  :      500.00
  volume of cell :     3176.89
      direct lattice vectors                 reciprocal lattice vectors
    12.800644171 -0.020584836  0.021594578     0.078121492  0.000125667 -0.000131547
    -0.020083495 12.458577061 -0.025282593     0.000128674  0.080266682  0.000239410
     0.033639930 -0.059471263 19.920802585    -0.000084522  0.000101735  0.050199227

  length of vectors
    12.800678937 12.458618902 19.920919761     0.078121704  0.080267142  0.050199401


 FORCES acting on ions:
    Electron-Ion                     Ewald-Force                    Non-Local-Force
 -----------------------------------------------------------------------------------------------
   0.258E+00 -.252E+01 -.148E+02   -.537E+00 0.301E+01 0.148E+02   0.163E+00 -.526E+00 -.548E-01
   -.232E+00 -.341E+01 -.128E+02   0.912E-01 0.367E+01 0.129E+02   0.818E-01 -.200E+00 -.238E-01
   0.637E+01 -.168E+01 -.142E+02   -.644E+01 0.178E+01 0.142E+02   0.180E+00 -.118E+00 -.137E-01
   0.421E+01 -.335E+01 -.157E+02   -.407E+01 0.387E+01 0.157E+02   -.374E-01 -.422E+00 0.288E-02
   0.682E+00 -.910E+01 -.127E+02   -.309E+00 0.968E+01 0.127E+02   -.331E+00 -.616E+00 -.335E-01
   -.589E+00 -.406E+01 -.790E+01   0.409E+00 0.405E+01 0.796E+01   0.597E-01 -.264E-01 -.645E-01
   0.138E+01 -.319E+01 -.102E+02   -.121E+01 0.330E+01 0.101E+02   -.187E+00 -.117E+00 0.464E-01
   0.279E+00 -.776E+01 -.105E+02   0.148E+01 0.772E+01 0.103E+02   -.145E+01 -.606E-01 0.187E+00
   -.258E+01 0.331E+01 -.705E+01   0.300E+01 -.383E+01 0.731E+01   -.541E+00 0.752E+00 -.297E+00
   0.811E+00 0.203E+01 0.701E+00   -.978E+00 -.205E+01 -.741E+00   0.212E+00 0.908E-01 0.533E-01
   0.265E+01 0.407E+00 -.521E+01   -.238E+01 -.310E+00 0.529E+01   -.146E+00 -.486E-01 -.755E-01
   0.263E+02 -.185E+01 0.173E+02   -.298E+02 0.122E+01 -.165E+02   0.326E+01 0.503E+00 -.649E+00
   -.285E+01 0.322E+01 0.152E+02   0.254E+01 -.406E+01 -.154E+02   0.327E+00 0.629E+00 0.224E+00
   0.725E+00 0.489E+01 -.823E+01   -.990E+00 -.511E+01 0.827E+01   0.171E+00 0.189E+00 -.462E-01
   0.159E+01 0.261E+01 0.512E+00   -.187E+01 -.289E+01 -.405E+00   0.200E+00 0.170E+00 -.930E-01
   0.199E+02 0.163E+02 -.182E+00   -.239E+02 -.168E+02 0.410E+00   0.418E+01 0.498E+00 -.279E+00
   0.498E+01 0.396E+01 -.126E+02   -.567E+01 -.362E+01 0.127E+02   0.598E+00 -.265E+00 -.902E-01
   0.568E+00 0.273E+00 -.135E+02   -.751E+00 -.263E+00 0.135E+02   0.159E+00 -.365E-01 -.248E-01
   0.453E+01 0.215E+01 -.123E+02   -.501E+01 -.222E+01 0.124E+02   0.499E+00 0.117E+00 -.584E-01
   0.356E+01 -.283E+01 -.109E+02   -.384E+01 0.322E+01 0.109E+02   0.270E+00 -.423E+00 -.239E-01
   -.526E+01 0.283E+01 -.432E+01   0.547E+01 -.254E+01 0.432E+01   -.211E+00 -.259E+00 -.277E-01
   0.122E+01 0.512E+00 -.173E+02   -.110E+01 0.758E-01 0.173E+02   -.200E+00 -.569E+00 -.664E-01
   -.391E+01 -.103E+01 -.865E+01   0.426E+01 0.164E+01 0.867E+01   -.303E+00 -.593E+00 -.309E-01
   -.213E+01 0.693E+00 -.109E+02   0.208E+01 -.162E+00 0.109E+02   0.128E+00 -.528E+00 -.886E-01
   -.509E+01 -.621E+01 -.146E+02   0.558E+01 0.787E+01 0.148E+02   -.282E+00 -.137E+01 -.189E+00
   -.232E+01 -.470E+01 -.176E+02   0.206E+01 0.629E+01 0.177E+02   0.717E-01 -.132E+01 -.764E-01
   -.654E+01 0.255E+02 0.867E+01   0.823E+01 -.260E+02 -.747E+01   -.147E+01 0.567E+00 -.105E+01
   -.305E+01 -.299E+01 -.397E+01   0.321E+01 0.386E+01 0.407E+01   -.106E+00 -.830E+00 -.731E-01
   -.336E+02 -.338E+01 0.184E+00   0.356E+02 0.696E+01 0.101E+01   -.213E+01 -.356E+01 -.115E+01
   -.118E+01 0.111E+02 0.697E+01   0.115E+01 -.110E+02 -.701E+01   -.619E-03 -.102E+00 0.110E+00
   -.252E+01 -.867E+00 -.122E+02   0.239E+01 0.919E+00 0.122E+02   0.389E-02 -.642E-01 -.364E-01
   -.505E+01 -.228E+01 -.794E+01   0.498E+01 0.271E+01 0.790E+01   -.198E-01 -.296E+00 0.232E-01
   0.347E+01 0.262E+01 -.918E+01   -.337E+01 -.250E+01 0.922E+01   0.283E-01 -.171E+00 -.425E-01
   0.360E+01 -.178E+01 -.109E+02   -.367E+01 0.199E+01 0.109E+02   0.111E+00 -.148E+00 -.219E-01
   0.106E+01 -.428E+01 -.619E+01   -.133E+01 0.438E+01 0.616E+01   0.281E+00 -.103E+00 0.296E-01
   0.275E+01 -.132E+02 -.287E+01   -.449E+01 0.132E+02 0.276E+01   0.148E+01 -.122E+00 0.129E+00
   0.206E+01 -.940E+01 -.611E+01   -.246E+01 0.996E+01 0.613E+01   0.352E+00 -.601E+00 -.211E-01
   0.397E+01 -.366E+01 -.490E+01   -.394E+01 0.366E+01 0.492E+01   0.711E-01 -.628E-01 -.185E-01
   0.298E+01 -.141E+01 0.368E+00   -.339E+01 0.155E+01 -.362E+00   0.255E+00 -.611E-01 0.101E-02
   0.161E+02 -.411E+01 0.131E+02   -.160E+02 0.415E+01 -.125E+02   0.128E+00 -.673E-01 -.447E+00
   0.129E+02 -.340E+01 0.277E+01   -.132E+02 0.283E+01 -.231E+01   0.453E+00 0.727E+00 -.464E+00
   0.420E+01 0.201E+01 0.293E+00   -.428E+01 -.202E+01 -.337E+00   0.134E-01 0.533E-01 0.562E-01
   0.447E+01 0.227E+01 -.597E+01   -.465E+01 -.255E+01 0.599E+01   0.221E+00 0.163E+00 -.259E-01
   0.167E+02 0.137E+02 -.123E+02   -.175E+02 -.140E+02 0.123E+02   0.626E+00 0.346E+00 0.296E-03
   0.178E+02 0.120E+01 -.235E+01   -.181E+02 -.962E+00 0.205E+01   0.213E+00 -.346E+00 0.310E+00
   0.642E+01 0.265E+01 -.113E+02   -.649E+01 -.282E+01 0.114E+02   0.131E+00 0.121E+00 -.688E-01
   0.391E+01 0.416E+01 -.136E+02   -.403E+01 -.417E+01 0.137E+02   0.647E-01 0.752E-01 -.538E-01
   -.166E+00 0.466E+01 -.521E+01   0.250E+00 -.474E+01 0.522E+01   -.759E-01 0.614E-01 -.103E-01
   0.706E+01 0.938E+01 -.130E+02   -.721E+01 -.971E+01 0.131E+02   0.172E+00 0.366E+00 -.896E-01
   0.513E+01 0.114E+01 -.130E+02   -.528E+01 -.119E+01 0.130E+02   0.147E+00 0.208E-01 -.492E-02
   -.739E+01 -.352E+02 -.243E+02   0.108E+02 0.407E+02 0.252E+02   -.390E+01 -.573E+01 -.764E+00
   0.494E+01 -.459E+02 -.152E+02   -.821E+01 0.512E+02 0.156E+02   0.370E+01 -.566E+01 -.399E+00
   0.169E+02 -.436E+02 0.684E+02   -.228E+02 0.433E+02 -.703E+02   0.593E+01 0.110E+01 0.150E+01
   0.395E+02 0.736E+02 -.451E+01   -.419E+02 -.802E+02 0.478E+01   0.251E+01 0.651E+01 -.407E+00
   -.384E+02 -.384E+02 0.935E+02   0.521E+02 0.399E+02 -.964E+02   -.127E+02 -.903E+00 0.258E+01
   -.570E+02 0.838E+02 0.145E+02   0.670E+02 -.102E+03 -.138E+02   -.955E+01 0.174E+02 -.719E+00
   -.376E+02 -.820E+01 -.677E+02   0.374E+02 0.181E+01 0.674E+02   -.430E+00 0.464E+01 0.841E+00
   -.304E+02 -.184E+02 0.261E+03   0.311E+02 0.173E+02 -.254E+03   -.566E+00 0.149E+01 -.768E+01
 -----------------------------------------------------------------------------------------------
   0.814E+01 -.113E+02 0.968E+01   -.213E-12 -.298E-12 0.284E-13   -.722E+01 0.103E+02 -.977E+01
 
 
 POSITION                                       TOTAL-FORCE (eV/Angst)
 -----------------------------------------------------------------------------------
      2.83843     -0.02814     10.05451        -0.112188     -0.062124     -0.018520
      0.71785      1.22234     10.05189        -0.059648      0.046493     -0.015907
      1.41871     -0.03017     10.05933         0.125753     -0.029447     -0.014567
      3.55806      1.20937     10.05769         0.100346      0.080246     -0.021939
      2.87498      2.46407     10.03938         0.024209     -0.065104     -0.018331
      0.72548      3.71000     10.00468        -0.119091     -0.045255     -0.001981
      1.44084      2.46562     10.03413        -0.017557     -0.005522     -0.002515
      3.63050      3.70311     10.00465         0.240004     -0.106817      0.008005
      2.88682      4.94724      9.94908        -0.156903      0.279159     -0.052728
      0.73087      6.20037      9.94665         0.054584      0.074913      0.016884
      1.45740      4.95561      9.97053         0.120901      0.046677     -0.004017
      3.59809      6.20205      9.81739        -0.003296     -0.102602      0.065782
      2.87758      7.45798      9.86141         0.030477     -0.185712      0.047275
      0.71222      8.68634      9.98085        -0.088359     -0.020667     -0.011206
      1.44516      7.44899      9.93299        -0.063987     -0.095943      0.008596
      3.57620      8.71960      9.89390         0.437229      0.100851     -0.067172
      2.83497      9.94657      9.97892        -0.057980      0.061206      0.004076
      0.69664     11.17760     10.02657        -0.020197     -0.028037     -0.011564
      1.41018      9.93498     10.00289         0.043374      0.052365     -0.008587
      3.52873     11.19226      9.99514         0.006503     -0.057025     -0.013592
      7.09997     12.38893      9.98191        -0.017220      0.009833     -0.026141
      4.98146      1.18058     10.05541        -0.088936     -0.003135     -0.046729
      5.67841     12.40746      9.99469         0.024111     -0.008205     -0.015438
      7.83852      1.16817     10.03503         0.087733     -0.017963     -0.040540
      7.13141      2.39766     10.03966         0.189724      0.237012     -0.016992
      5.69526      2.39667     10.05040        -0.188341      0.211593     -0.009112
      7.08833      9.89677      9.88872         0.136435      0.089478      0.098825
      4.95353     11.19076      9.96103         0.048875     -0.008494      0.025408
      5.63984      9.95793      9.89640        -0.226435     -0.190369     -0.016614
      7.80315     11.14756      9.93867        -0.033686     -0.016822      0.074812
     11.36692     12.40223     10.04006        -0.134767     -0.016932     -0.018730
      9.25903      1.18396     10.03508        -0.095373      0.113719     -0.007950
      9.94652     12.39707     10.01814         0.137551     -0.056636     -0.014330
     12.09068      1.19915     10.06250         0.059470      0.055614     -0.011502
     11.37588      2.44402     10.03277         0.024701     -0.006579     -0.000167
      9.19475      3.68372      9.98751        -0.195904     -0.074692      0.029016
      9.94354      2.44241     10.02197        -0.027483     -0.072050     -0.003715
     12.09619      3.68773     10.01372         0.108852     -0.062676      0.006479
     11.36868      4.93259      9.97443        -0.143710      0.073839      0.007664
      9.22592      6.18534      9.86808         0.201249     -0.020228      0.076960
      9.94040      4.92737      9.94552         0.150579      0.196983     -0.023305
     12.09785      6.17640      9.97090        -0.061344      0.049882      0.015691
     11.37516      7.41810      9.98052         0.044312     -0.108841     -0.003674
      9.20931      8.65581      9.96003        -0.102015      0.036852     -0.091162
      9.95298      7.42133      9.94020        -0.083901     -0.126429      0.019270
     12.08726      8.66428     10.01323         0.073893     -0.049172     -0.008953
     11.36648      9.90617     10.02935        -0.058953      0.077453     -0.008787
      9.23093     11.14826      9.98860         0.001344     -0.021649     -0.001572
      9.93502      9.90293     10.00455         0.033336      0.060081      0.001740
     12.07306     11.15329     10.04468         0.006651     -0.028894     -0.016653
      5.05604      3.65740     10.03554        -0.671128     -0.601040      0.021303
      7.76835      3.66892     10.01302         0.620882     -0.636484     -0.016499
      7.83774      6.18410      9.69016         0.345744      0.869874     -0.277835
      7.79242      8.64215      9.88385         0.221180      0.298548     -0.153078
      4.93365      6.20114      9.65029        -0.041342      0.559786     -0.147585
      4.95012      8.77126      9.82826        -0.398311      0.578496     -0.099172
      6.37640      5.12452      9.96074        -0.404378     -0.932130      0.130869
      6.28643      7.44401      9.02188        -0.027571     -0.397281      0.680204
 -----------------------------------------------------------------------------------
    total drift:                                0.005213      0.000515     -0.016769


--------------------------------------------------------------------------------------------------------



  FREE ENERGIE OF THE ION-ELECTRON SYSTEM (eV)
  ---------------------------------------------------
  free  energy   TOTEN  =      -606.68316793 eV

  energy  without entropy=     -606.68316793  energy(sigma->0) =     -606.68316793
 


--------------------------------------------------------------------------------------------------------


    POTLOK:  cpu time    3.5398: real time    3.5401


--------------------------------------------------------------------------------------------------------


 stress matrix after NEB project (eV)
    -44.46844      0.23619     -0.15865
      0.23619    -42.05884     -0.08365
     -0.15893     -0.08407     -0.83330
  FORCES: max atom, RMS     1.024459    0.334576
  FORCE total and by dimension    2.548055    0.932130
  Stress total and by dimension   61.214855   44.468436
 writing wavefunctions
     LOOP+:  cpu time77896.8886: real time77925.6359
    4ORBIT:  cpu time    0.0000: real time    0.0000
 


 total charge     
 
# of ion       s       p       d       tot
------------------------------------------
    1        0.867   1.777   0.000   2.643
    2        0.863   1.760   0.000   2.623
    3        0.866   1.763   0.000   2.629
    4        0.867   1.768   0.000   2.635
    5        0.862   1.749   0.000   2.611
    6        0.861   1.754   0.000   2.615
    7        0.864   1.749   0.000   2.613
    8        0.860   1.730   0.000   2.590
    9        0.862   1.746   0.000   2.608
   10        0.860   1.753   0.000   2.613
   11        0.862   1.741   0.000   2.603
   12        0.860   1.722   0.000   2.582
   13        0.857   1.760   0.000   2.618
   14        0.863   1.764   0.000   2.628
   15        0.861   1.747   0.000   2.608
   16        0.859   1.718   0.000   2.576
   17        0.866   1.776   0.000   2.642
   18        0.865   1.766   0.000   2.630
   19        0.865   1.765   0.000   2.630
   20        0.869   1.765   0.000   2.634
   21        0.867   1.773   0.000   2.639
   22        0.872   1.788   0.000   2.660
   23        0.870   1.783   0.000   2.653
   24        0.871   1.779   0.000   2.649
   25        0.878   1.762   0.000   2.640
   26        0.882   1.771   0.000   2.653
   27        0.861   1.740   0.000   2.601
   28        0.871   1.798   0.000   2.669
   29        0.865   1.743   0.000   2.608
   30        0.866   1.758   0.000   2.624
   31        0.864   1.764   0.000   2.628
   32        0.867   1.768   0.000   2.635
   33        0.866   1.762   0.000   2.628
   34        0.864   1.755   0.000   2.619
   35        0.863   1.755   0.000   2.618
   36        0.861   1.733   0.000   2.594
   37        0.863   1.747   0.000   2.610
   38        0.863   1.749   0.000   2.612
   39        0.861   1.750   0.000   2.611
   40        0.867   1.761   0.000   2.628
   41        0.863   1.733   0.000   2.596
   42        0.861   1.751   0.000   2.612
   43        0.864   1.762   0.000   2.626
   44        0.864   1.745   0.000   2.609
   45        0.866   1.757   0.000   2.623
   46        0.865   1.757   0.000   2.622
   47        0.863   1.760   0.000   2.623
   48        0.864   1.759   0.000   2.624
   49        0.865   1.750   0.000   2.615
   50        0.865   1.762   0.000   2.628
   51        0.872   1.662   0.000   2.534
   52        0.867   1.646   0.000   2.514
   53        0.911   1.509   0.000   2.420
   54        0.866   1.648   0.000   2.514
   55        1.252   2.599   0.000   3.851
   56        1.238   2.681   0.000   3.918
   57        0.543   0.803   6.175   7.520
   58        0.486   0.728   2.716   3.931
--------------------------------------------------
tot         50.275 101.123   8.891 160.288
 


 magnetization (x)
 
# of ion       s       p       d       tot
------------------------------------------
    1        0.000   0.001   0.000   0.001
    2        0.000   0.002   0.000   0.002
    3       -0.000  -0.003   0.000  -0.003
    4        0.001   0.008   0.000   0.008
    5       -0.001  -0.004   0.000  -0.005
    6        0.000   0.003   0.000   0.003
    7       -0.000  -0.004   0.000  -0.004
    8        0.000   0.004   0.000   0.004
    9        0.001   0.009   0.000   0.010
   10        0.000   0.004   0.000   0.004
   11       -0.000  -0.000   0.000  -0.001
   12       -0.001  -0.013   0.000  -0.014
   13        0.000   0.008   0.000   0.009
   14        0.000   0.002   0.000   0.002
   15       -0.000   0.001   0.000   0.001
   16       -0.001  -0.013   0.000  -0.014
   17        0.000   0.004   0.000   0.004
   18        0.000   0.002   0.000   0.002
   19       -0.000  -0.002   0.000  -0.002
   20       -0.000  -0.002   0.000  -0.002
   21       -0.000   0.003   0.000   0.003
   22       -0.001  -0.007   0.000  -0.008
   23       -0.000   0.003   0.000   0.003
   24       -0.001  -0.007   0.000  -0.009
   25       -0.000   0.014   0.000   0.013
   26        0.000   0.014   0.000   0.015
   27       -0.003  -0.007   0.000  -0.010
   28        0.000   0.002   0.000   0.002
   29       -0.001  -0.002   0.000  -0.003
   30       -0.001  -0.004   0.000  -0.005
   31        0.000   0.003   0.000   0.003
   32        0.001   0.008   0.000   0.009
   33       -0.000  -0.003   0.000  -0.003
   34       -0.000  -0.002   0.000  -0.002
   35        0.000   0.001   0.000   0.001
   36        0.000   0.005   0.000   0.006
   37       -0.001  -0.004   0.000  -0.005
   38       -0.000  -0.002   0.000  -0.002
   39       -0.000   0.002   0.000   0.002
   40        0.001  -0.000   0.000   0.001
   41       -0.001   0.004   0.000   0.004
   42        0.000   0.008   0.000   0.008
   43       -0.000  -0.001   0.000  -0.001
   44        0.000   0.002   0.000   0.002
   45       -0.000   0.008   0.000   0.008
   46       -0.000  -0.002   0.000  -0.002
   47        0.000   0.003   0.000   0.004
   48        0.000   0.005   0.000   0.005
   49       -0.000  -0.003   0.000  -0.003
   50       -0.000  -0.002   0.000  -0.002
   51       -0.016  -0.067   0.000  -0.083
   52       -0.011  -0.041   0.000  -0.052
   53       -0.007  -0.097   0.000  -0.104
   54        0.002   0.007   0.000   0.009
   55       -0.000   0.019   0.000   0.019
   56        0.003   0.022   0.000   0.025
   57        0.052   0.015   2.607   2.673
   58       -0.009  -0.007  -0.650  -0.666
--------------------------------------------------
tot          0.005  -0.103   1.957   1.859
 

 total amount of memory used by VASP MPI-rank0   192043. kBytes
=======================================================================

   base      :      30000. kBytes
   nonl-proj :       5308. kBytes
   fftplans  :      14253. kBytes
   grid      :      36827. kBytes
   one-center:         62. kBytes
   HF        :         23. kBytes
   nonlr-proj:      29841. kBytes
   wavefun   :      75729. kBytes
 
  
  
 General timing and accounting informations for this job:
 ========================================================
  
                  Total CPU time used (sec):    77989.422
                            User time (sec):    77901.740
                          System time (sec):       87.684
                         Elapsed time (sec):    78021.785
  
                   Maximum memory used (kb):      435548.
                   Average memory used (kb):           0.
  
                          Minor page faults:       539920
                          Major page faults:            2
                 Voluntary context switches:         1518
