 vasp.5.4.4.18Apr17-6-g9f103f2a35 (build Feb 25 2019 10:51:38) complex          
  
 executed on             LinuxIFC date 2022.01.27  15:16:08
 running on   32 total cores
 distrk:  each k-point on   32 cores,    1 groups
 distr:  one band on NCORES_PER_BAND=  32 cores,    1 groups


--------------------------------------------------------------------------------------------------------


 INCAR:
 POTCAR:    PAW_PBE C 08Apr2002                   
 POTCAR:    PAW_PBE N 08Apr2002                   
 POTCAR:    PAW_PBE Fe 06Sep2000                  
 POTCAR:    PAW_PBE Zn 06Sep2000                  

 ----------------------------------------------------------------------------- 
|                                                                             |
|           W    W    AA    RRRRR   N    N  II  N    N   GGGG   !!!           |
|           W    W   A  A   R    R  NN   N  II  NN   N  G    G  !!!           |
|           W    W  A    A  R    R  N N  N  II  N N  N  G       !!!           |
|           W WW W  AAAAAA  RRRRR   N  N N  II  N  N N  G  GGG   !            |
|           WW  WW  A    A  R   R   N   NN  II  N   NN  G    G                |
|           W    W  A    A  R    R  N    N  II  N    N   GGGG   !!!           |
|                                                                             |
|      For optimal performance we recommend to set                            |
|        NCORE= 4 - approx SQRT( number of cores)                             |
|      NCORE specifies how many cores store one orbital (NPAR=cpu/NCORE).     |
|      This setting can  greatly improve the performance of VASP for DFT.     |
|      The default,   NCORE=1            might be grossly inefficient         |
|      on modern multi-core architectures or massively parallel machines.     |
|      Do your own testing !!!!                                               |
|      Unfortunately you need to use the default for GW and RPA calculations. |
|      (for HF NCORE is supported but not extensively tested yet)             |
|                                                                             |
 ----------------------------------------------------------------------------- 

 POTCAR:    PAW_PBE C 08Apr2002                   
   VRHFIN =C: s2p2                                                              
   LEXCH  = PE                                                                  
   EATOM  =   147.1560 eV,   10.8157 Ry                                         
                                                                                
   TITEL  = PAW_PBE C 08Apr2002                                                 
   LULTRA =        F    use ultrasoft PP ?                                      
   IUNSCR =        1    unscreen: 0-lin 1-nonlin 2-no                           
   RPACOR =    1.200    partial core radius                                     
   POMASS =   12.011; ZVAL   =    4.000    mass and valenz                      
   RCORE  =    1.500    outmost cutoff radius                                   
   RWIGS  =    1.630; RWIGS  =    0.863    wigner-seitz radius (au A)           
   ENMAX  =  400.000; ENMIN  =  300.000 eV                                      
   ICORE  =        2    local potential                                         
   LCOR   =        T    correct aug charges                                     
   LPAW   =        T    paw PP                                                  
   EAUG   =  644.873                                                            
   DEXC   =    0.000                                                            
   RMAX   =    1.529    core radius for proj-oper                               
   RAUG   =    1.300    factor for augmentation sphere                          
   RDEP   =    1.501    radius for radial grids                                 
   RDEPT  =    1.300    core radius for aug-charge                              
                                                                                
   Atomic configuration                                                         
    4 entries                                                                   
     n  l   j            E        occ.                                          
     1  0  0.50      -273.3789   2.0000                                         
     2  0  0.50       -13.7508   2.0000                                         
     2  1  0.50        -5.2854   2.0000                                         
     3  2  1.50        -5.4423   0.0000                                         
   Description                                                                  
     l       E           TYP  RCUT    TYP  RCUT                                 
     0    -13.7508458     23  1.200                                             
     0     -8.2022199     23  1.200                                             
     1     -5.2854383     23  1.500                                             
     1     34.0145650     23  1.500                                             
     2     -5.4423304      7  1.500                                             
  local pseudopotential read in
  partial core-charges read in
  partial kinetic energy density read in
  atomic valenz-charges read in
  non local Contribution for L=           0  read in
    real space projection operators read in
  non local Contribution for L=           0  read in
    real space projection operators read in
  non local Contribution for L=           1  read in
    real space projection operators read in
  non local Contribution for L=           1  read in
    real space projection operators read in
    PAW grid and wavefunctions read in
 
   number of l-projection  operators is LMAX  =           4
   number of lm-projection operators is LMMAX =           8
 
 POTCAR:    PAW_PBE N 08Apr2002                   
   VRHFIN =N: s2p3                                                              
   LEXCH  = PE                                                                  
   EATOM  =   264.5486 eV,   19.4438 Ry                                         
                                                                                
   TITEL  = PAW_PBE N 08Apr2002                                                 
   LULTRA =        F    use ultrasoft PP ?                                      
   IUNSCR =        1    unscreen: 0-lin 1-nonlin 2-no                           
   RPACOR =    1.200    partial core radius                                     
   POMASS =   14.001; ZVAL   =    5.000    mass and valenz                      
   RCORE  =    1.500    outmost cutoff radius                                   
   RWIGS  =    1.400; RWIGS  =    0.741    wigner-seitz radius (au A)           
   ENMAX  =  400.000; ENMIN  =  300.000 eV                                      
   ICORE  =        2    local potential                                         
   LCOR   =        T    correct aug charges                                     
   LPAW   =        T    paw PP                                                  
   EAUG   =  627.112                                                            
   DEXC   =    0.000                                                            
   RMAX   =    1.529    core radius for proj-oper                               
   RAUG   =    1.300    factor for augmentation sphere                          
   RDEP   =    1.514    radius for radial grids                                 
   RDEPT  =    1.338    core radius for aug-charge                              
                                                                                
   Atomic configuration                                                         
    4 entries                                                                   
     n  l   j            E        occ.                                          
     1  0  0.50      -384.7179   2.0000                                         
     2  0  0.50       -18.5828   2.0000                                         
     2  1  0.50        -7.0898   3.0000                                         
     3  2  1.50        -6.8029   0.0000                                         
   Description                                                                  
     l       E           TYP  RCUT    TYP  RCUT                                 
     0    -18.5828119     23  1.200                                             
     0    -13.5018863     23  1.200                                             
     1     -7.0897853     23  1.500                                             
     1      9.5240782     23  1.500                                             
     2     -6.8029130      7  1.500                                             
  local pseudopotential read in
  partial core-charges read in
  partial kinetic energy density read in
  atomic valenz-charges read in
  non local Contribution for L=           0  read in
    real space projection operators read in
  non local Contribution for L=           0  read in
    real space projection operators read in
  non local Contribution for L=           1  read in
    real space projection operators read in
  non local Contribution for L=           1  read in
    real space projection operators read in
    PAW grid and wavefunctions read in
 
   number of l-projection  operators is LMAX  =           4
   number of lm-projection operators is LMMAX =           8
 
 POTCAR:    PAW_PBE Fe 06Sep2000                  
   VRHFIN =Fe:  d7 s1                                                           
   LEXCH  = PE                                                                  
   EATOM  =   594.3153 eV,   43.6809 Ry                                         
                                                                                
   TITEL  = PAW_PBE Fe 06Sep2000                                                
   LULTRA =        F    use ultrasoft PP ?                                      
   IUNSCR =        1    unscreen: 0-lin 1-nonlin 2-no                           
   RPACOR =    2.000    partial core radius                                     
   POMASS =   55.847; ZVAL   =    8.000    mass and valenz                      
   RCORE  =    2.300    outmost cutoff radius                                   
   RWIGS  =    2.460; RWIGS  =    1.302    wigner-seitz radius (au A)           
   ENMAX  =  267.882; ENMIN  =  200.911 eV                                      
   RCLOC  =    1.701    cutoff for local pot                                    
   LCOR   =        T    correct aug charges                                     
   LPAW   =        T    paw PP                                                  
   EAUG   =  511.368                                                            
   DEXC   =    0.000                                                            
   RMAX   =    2.356    core radius for proj-oper                               
   RAUG   =    1.300    factor for augmentation sphere                          
   RDEP   =    2.442    radius for radial grids                                 
   RDEPT  =    1.890    core radius for aug-charge                              
                                                                                
   Atomic configuration                                                         
    9 entries                                                                   
     n  l   j            E        occ.                                          
     1  0  0.50     -6993.8440   2.0000                                         
     2  0  0.50      -814.6047   2.0000                                         
     2  1  1.50      -693.3689   6.0000                                         
     3  0  0.50       -89.4732   2.0000                                         
     3  1  1.50       -55.6373   6.0000                                         
     3  2  2.50        -3.8151   7.0000                                         
     4  0  0.50        -4.2551   1.0000                                         
     4  1  1.50        -3.4015   0.0000                                         
     4  3  2.50        -1.3606   0.0000                                         
   Description                                                                  
     l       E           TYP  RCUT    TYP  RCUT                                 
     2     -3.8151135     23  2.300                                             
     2     -5.1756961     23  2.300                                             
     0     -4.2550963     23  2.300                                             
     0      7.2035603     23  2.300                                             
     1     -2.7211652     23  2.300                                             
     1     18.4316424     23  2.300                                             
  local pseudopotential read in
  partial core-charges read in
  partial kinetic energy density read in
  atomic valenz-charges read in
  non local Contribution for L=           2  read in
    real space projection operators read in
  non local Contribution for L=           2  read in
    real space projection operators read in
  non local Contribution for L=           0  read in
    real space projection operators read in
  non local Contribution for L=           0  read in
    real space projection operators read in
  non local Contribution for L=           1  read in
    real space projection operators read in
  non local Contribution for L=           1  read in
    real space projection operators read in
    PAW grid and wavefunctions read in
 
   number of l-projection  operators is LMAX  =           6
   number of lm-projection operators is LMMAX =          18
 
 POTCAR:    PAW_PBE Zn 06Sep2000                  
   VRHFIN =Zn: d10 p2                                                           
   LEXCH  = PE                                                                  
   EATOM  =  1748.8345 eV,  128.5357 Ry                                         
                                                                                
   TITEL  = PAW_PBE Zn 06Sep2000                                                
   LULTRA =        F    use ultrasoft PP ?                                      
   IUNSCR =        1    unscreen: 0-lin 1-nonlin 2-no                           
   RPACOR =    2.000    partial core radius                                     
   POMASS =   65.390; ZVAL   =   12.000    mass and valenz                      
   RCORE  =    2.300    outmost cutoff radius                                   
   RWIGS  =    2.400; RWIGS  =    1.270    wigner-seitz radius (au A)           
   ENMAX  =  276.723; ENMIN  =  207.542 eV                                      
   RCLOC  =    1.828    cutoff for local pot                                    
   LCOR   =        T    correct aug charges                                     
   LPAW   =        T    paw PP                                                  
   EAUG   =  575.892                                                            
   DEXC   =    0.000                                                            
   RMAX   =    2.347    core radius for proj-oper                               
   RAUG   =    1.300    factor for augmentation sphere                          
   RDEP   =    2.324    radius for radial grids                                 
   RDEPT  =    1.788    core radius for aug-charge                              
                                                                                
   Atomic configuration                                                         
    9 entries                                                                   
     n  l   j            E        occ.                                          
     1  0  0.50     -9524.6913   2.0000                                         
     2  0  0.50     -1158.1882   2.0000                                         
     2  1  1.50     -1003.8506   6.0000                                         
     3  0  0.50      -129.2194   2.0000                                         
     3  1  1.50       -83.3890   6.0000                                         
     3  2  2.50       -10.1410  10.0000                                         
     4  0  0.50        -5.9785   2.0000                                         
     4  1  0.50        -4.0817   0.0000                                         
     4  3  2.50        -1.3606   0.0000                                         
   Description                                                                  
     l       E           TYP  RCUT    TYP  RCUT                                 
     2    -10.1410010     23  2.300                                             
     2    -11.5015836     23  2.300                                             
     0     -5.9785163     23  2.300                                             
     0      1.1858015     23  2.300                                             
     1     -2.7211652     23  2.300                                             
     1     13.2444212     23  2.300                                             
  local pseudopotential read in
  partial core-charges read in
  partial kinetic energy density read in
  atomic valenz-charges read in
  non local Contribution for L=           2  read in
    real space projection operators read in
  non local Contribution for L=           2  read in
    real space projection operators read in
  non local Contribution for L=           0  read in
    real space projection operators read in
  non local Contribution for L=           0  read in
    real space projection operators read in
  non local Contribution for L=           1  read in
    real space projection operators read in
  non local Contribution for L=           1  read in
    real space projection operators read in
    PAW grid and wavefunctions read in
 
   number of l-projection  operators is LMAX  =           6
   number of lm-projection operators is LMMAX =          18
 

 ----------------------------------------------------------------------------- 
|                                                                             |
|  ADVICE TO THIS USER RUNNING 'VASP/VAMP'   (HEAR YOUR MASTER'S VOICE ...):  |
|                                                                             |
|      You have a (more or less) 'large supercell' and for larger cells       |
|      it might be more efficient to use real space projection opertators     |
|      So try LREAL= Auto  in the INCAR   file.                               |
|      Mind:          For very  accurate calculation you might also keep the  |
|      reciprocal projection scheme          (i.e. LREAL=.FALSE.)             |
|                                                                             |
 ----------------------------------------------------------------------------- 

  PAW_PBE C 08Apr2002                   :
 energy of atom  1       EATOM= -147.1560
 kinetic energy error for atom=    0.0076 (will be added to EATOM!!)
  PAW_PBE N 08Apr2002                   :
 energy of atom  2       EATOM= -264.5486
 kinetic energy error for atom=    0.0138 (will be added to EATOM!!)
  PAW_PBE Fe 06Sep2000                  :
 energy of atom  3       EATOM= -594.3153
 kinetic energy error for atom=    0.0026 (will be added to EATOM!!)
  PAW_PBE Zn 06Sep2000                  :
 energy of atom  4       EATOM=-1748.8345
 kinetic energy error for atom=    0.0029 (will be added to EATOM!!)
 
 
 POSCAR:  C  N Fe Zn                             
  positions in cartesian coordinates
  No initial velocities read in
 exchange correlation table for  LEXCH =        8
   RHO(1)=    0.500       N(1)  =     2000
   RHO(2)=  100.500       N(2)  =     4000

 VTST: version 3.2, (02/03/18)

 CHAIN: initializing optimizer
 
 OPT: Using VASP Conjugate-Gradient optimizer
 CHAIN: Read ICHAIN            0
 
 POSCAR:  C  N Fe Zn                             
  positions in cartesian coordinates
  No initial velocities read in
 


--------------------------------------------------------------------------------------------------------


 ion  position               nearest neighbor table
   1  0.221  1.000  0.501-   4 1.42   3 1.43  19 1.44
   2  0.052  0.101  0.501-   7 1.42  34 1.43   3 1.44
   3  0.109  0.001  0.501-  17 1.42   1 1.43   2 1.44
   4  0.275  0.100  0.502-   1 1.42  21 1.42   5 1.44
   5  0.218  0.200  0.502-   8 1.41   7 1.42   4 1.44
   6  0.052  0.301  0.502-  38 1.43   7 1.43  11 1.43
   7  0.107  0.201  0.502-   2 1.42   5 1.42   6 1.43
   8  0.273  0.298  0.502-  51 1.38   5 1.41   9 1.44
   9  0.219  0.400  0.500-  50 1.40  11 1.41   8 1.44
  10  0.056  0.502  0.501-  41 1.42  11 1.43  14 1.44
  11  0.109  0.400  0.502-   9 1.41  10 1.43   6 1.43
  12  0.227  0.595  0.498-  50 1.40  14 1.44  15 1.47
  13  0.058  0.701  0.500-  18 1.42  45 1.43  14 1.44
  14  0.115  0.600  0.500-  10 1.44  12 1.44  13 1.44
  15  0.284  0.698  0.498-  53 1.37  16 1.46  12 1.47
  16  0.224  0.798  0.499-  19 1.43  18 1.43  15 1.46
  17  0.056  0.901  0.500-   3 1.42  49 1.43  18 1.45
  18  0.113  0.800  0.500-  13 1.42  16 1.43  17 1.45
  19  0.278  0.899  0.500-  28 1.43  16 1.43   1 1.44
  20  0.554  0.002  0.500-  22 1.42  23 1.44  30 1.44
  21  0.386  0.101  0.501-   4 1.42  22 1.44  25 1.44
  22  0.443  0.001  0.501-  20 1.42  28 1.44  21 1.44
  23  0.607  0.104  0.498-  32 1.43  20 1.44  24 1.45
  24  0.550  0.205  0.496-  25 1.43  23 1.45  26 1.46
  25  0.438  0.204  0.499-  51 1.39  24 1.43  21 1.44
  26  0.605  0.308  0.491-  52 1.36  36 1.45  24 1.46
  27  0.557  0.797  0.501-  54 1.38  30 1.44  29 1.47
  28  0.389  0.899  0.500-  19 1.43  22 1.44  29 1.45
  29  0.443  0.796  0.500-  53 1.36  28 1.45  27 1.47
  30  0.609  0.901  0.501-  47 1.43  27 1.44  20 1.44
  31  0.887  0.003  0.500-  34 1.42  33 1.43  49 1.44
  32  0.719  0.105  0.499-  23 1.43  37 1.44  33 1.45
  33  0.775  0.004  0.500-  47 1.43  31 1.43  32 1.45
  34  0.941  0.103  0.501-  31 1.42   2 1.43  35 1.44
  35  0.885  0.204  0.501-  38 1.43  37 1.44  34 1.44
  36  0.718  0.309  0.498-  26 1.45  40 1.45  37 1.45
  37  0.773  0.207  0.499-  35 1.44  32 1.44  36 1.45
  38  0.941  0.303  0.502-  35 1.43   6 1.43  39 1.43
  39  0.887  0.404  0.502-  41 1.43  38 1.43  40 1.43
  40  0.776  0.409  0.503-  55 1.38  39 1.43  36 1.45
  41  0.945  0.503  0.502-  10 1.42  39 1.43  42 1.43
  42  0.891  0.604  0.502-  44 1.41  45 1.42  41 1.43
  43  0.722  0.704  0.504-  54 1.39  48 1.42  44 1.46
  44  0.781  0.603  0.505-  55 1.37  42 1.41  43 1.46
  45  0.947  0.703  0.501-  42 1.42  13 1.43  46 1.43
  46  0.890  0.803  0.501-  49 1.42  48 1.43  45 1.43
  47  0.721  0.903  0.501-  33 1.43  30 1.43  48 1.44
  48  0.778  0.803  0.502-  43 1.42  46 1.43  47 1.44
  49  0.944  0.903  0.500-  46 1.42  17 1.43  31 1.44
  50  0.277  0.496  0.497-  12 1.40   9 1.40  56 1.94
  51  0.381  0.299  0.500-   8 1.38  25 1.39  56 1.87
  52  0.549  0.398  0.478-  26 1.36  56 1.76  57 1.97
  53  0.391  0.700  0.498-  29 1.36  15 1.37
  54  0.614  0.703  0.503-  27 1.38  43 1.39  57 1.98
  55  0.727  0.508  0.507-  44 1.37  40 1.38  57 1.98
  56  0.418  0.442  0.484-  52 1.76  51 1.87  50 1.94  57 2.46
  57  0.577  0.548  0.507-  52 1.97  54 1.98  55 1.98  56 2.46
 
  LATTYP: Found a simple orthorhombic cell.
 ALAT       =    12.4000000000
 B/A-ratio  =     1.0330645161
 C/A-ratio  =     1.6129032258
  
  Lattice vectors:
  
 A1 = (   0.0000000000, -12.4000000000,   0.0000000000)
 A2 = ( -12.8100000000,   0.0000000000,   0.0000000000)
 A3 = (   0.0000000000,   0.0000000000, -20.0000000000)


Analysis of symmetry for initial positions (statically):
=====================================================================
 Subroutine PRICEL returns:
 Original cell was already a primitive cell.
 

 Routine SETGRP: Setting up the symmetry group for a 
 simple orthorhombic supercell.


 Subroutine GETGRP returns: Found  1 space group operations
 (whereof  1 operations were pure point group operations)
 out of a pool of  8 trial point group operations.


The static configuration has the point symmetry C_1 .


Analysis of symmetry for dynamics (positions and initial velocities):
=====================================================================
 Subroutine PRICEL returns:
 Original cell was already a primitive cell.
 

 Routine SETGRP: Setting up the symmetry group for a 
 simple orthorhombic supercell.


 Subroutine GETGRP returns: Found  1 space group operations
 (whereof  1 operations were pure point group operations)
 out of a pool of  8 trial point group operations.


The dynamic configuration has the point symmetry C_1 .


Analysis of structural, dynamic, and magnetic symmetry:
=====================================================================
 Subroutine PRICEL returns:
 Original cell was already a primitive cell.
 

 Routine SETGRP: Setting up the symmetry group for a 
 simple orthorhombic supercell.


 Subroutine GETGRP returns: Found  1 space group operations
 (whereof  1 operations were pure point group operations)
 out of a pool of  8 trial point group operations.


The magnetic configuration has the point symmetry C_1 .


 Subroutine INISYM returns: Found  1 space group operations
 (whereof  1 operations are pure point group operations),
 and found     1 'primitive' translations

 
 
 KPOINTS: KPOINTS created by Atomic Simulation Env

Automatic generation of k-mesh.
Space group operators:
 irot       det(A)        alpha          n_x          n_y          n_z        tau_x        tau_y        tau_z
    1     1.000000     0.000000     1.000000     0.000000     0.000000     0.000000     0.000000     0.000000
 
 Subroutine IBZKPT returns following result:
 ===========================================
 
 Found      2 irreducible k-points:
 
 Following reciprocal coordinates:
            Coordinates               Weight
  0.250000  0.250000  0.000000      2.000000
 -0.250000  0.250000  0.000000      2.000000
 
 Following cartesian coordinates:
            Coordinates               Weight
  0.019516  0.020161  0.000000      2.000000
 -0.019516  0.020161  0.000000      2.000000
 
 
 Subroutine IBZKPT_HF returns following result:
 ==============================================
 
 Found      4 k-points in 1st BZ
 the following      4 k-points will be used (e.g. in the exchange kernel)
 Following reciprocal coordinates:   # in IRBZ
  0.250000  0.250000  0.000000    0.25000000   1 t-inv F
 -0.250000  0.250000  0.000000    0.25000000   2 t-inv F
 -0.250000 -0.250000  0.000000    0.25000000   1 t-inv T
  0.250000 -0.250000  0.000000    0.25000000   2 t-inv T


--------------------------------------------------------------------------------------------------------




 Dimension of arrays:
   k-points           NKPTS =      2   k-points in BZ     NKDIM =      4   number of bands    NBANDS=    156
   number of dos      NEDOS =    301   number of ions     NIONS =     57
   non local maximal  LDIM  =      6   non local SUM 2l+1 LMDIM =     18
   total plane-waves  NPLWV = ******
   max r-space proj   IRMAX =      1   max aug-charges    IRDMAX=  14730
   dimension x,y,z NGX =    96 NGY =   90 NGZ =  150
   dimension x,y,z NGXF=   192 NGYF=  180 NGZF=  300
   support grid    NGXF=   192 NGYF=  180 NGZF=  300
   ions per type =              49   6   1   1
   NGX,Y,Z   is equivalent  to a cutoff of  12.46, 12.07, 12.47 a.u.
   NGXF,Y,Z  is equivalent  to a cutoff of  24.92, 24.13, 24.94 a.u.

 SYSTEM =  unknown system                          
 POSCAR =   C  N Fe Zn                             

 Startparameter for this run:
   NWRITE =      2    write-flag & timer
   PREC   = accura    normal or accurate (medium, high low for compatibility)
   ISTART =      1    job   : 0-new  1-cont  2-samecut
   ICHARG =      0    charge: 1-file 2-atom 10-const
   ISPIN  =      2    spin polarized calculation?
   LNONCOLLINEAR =      F non collinear calculations
   LSORBIT =      F    spin-orbit coupling
   INIWAV =      1    electr: 0-lowe 1-rand  2-diag
   LASPH  =      T    aspherical Exc in radial PAW
   METAGGA=      F    non-selfconsistent MetaGGA calc.

 Electronic Relaxation 1
   ENCUT  =  500.0 eV  36.75 Ry    6.06 a.u.  23.36 22.61 36.46*2*pi/ulx,y,z
   ENINI  =  500.0     initial cutoff
   ENAUG  =  644.9 eV  augmentation charge cutoff
   NELM   =    250;   NELMIN=  2; NELMDL=  0     # of ELM steps 
   EDIFF  = 0.1E-03   stopping-criterion for ELM
   LREAL  =      F    real-space projection
   NLSPLINE    = F    spline interpolate recip. space projectors
   LCOMPAT=      F    compatible to vasp.4.4
   GGA_COMPAT  = T    GGA compatible to vasp.4.4-vasp.4.6
   LMAXPAW     = -100 max onsite density
   LMAXMIX     =    2 max onsite mixed and CHGCAR
   VOSKOWN=      0    Vosko Wilk Nusair interpolation
   ROPT   =    0.00000   0.00000   0.00000   0.00000
 Ionic relaxation
   EDIFFG = -.3E-01   stopping-criterion for IOM
   NSW    =      0    number of steps for IOM
   NBLOCK =      1;   KBLOCK =      1    inner block; outer block 
   IBRION =     -1    ionic relax: 0-MD 1-quasi-New 2-CG
   NFREE  =      1    steps in history (QN), initial steepest desc. (CG)
   ISIF   =      2    stress and relaxation
   IWAVPR =     10    prediction:  0-non 1-charg 2-wave 3-comb
   ISYM   =      3    0-nonsym 1-usesym 2-fastsym
   LCORR  =      T    Harris-Foulkes like correction to forces

   POTIM  = 0.5000    time-step for ionic-motion
   TEIN   =    0.0    initial temperature
   TEBEG  =    0.0;   TEEND  =   0.0 temperature during run
   SMASS  =  -3.00    Nose mass-parameter (am)
   estimated Nose-frequenzy (Omega)   =  0.10E-29 period in steps =****** mass=  -0.375E-26a.u.
   SCALEE = 1.0000    scale energy and forces
   NPACO  =    256;   APACO  = 16.0  distance and # of slots for P.C.
   PSTRESS=    0.0 pullay stress

  Mass of Ions in am
   POMASS =  12.01 14.00 55.85 65.39
  Ionic Valenz
   ZVAL   =   4.00  5.00  8.00 12.00
  Atomic Wigner-Seitz radii
   RWIGS  =  -1.00 -1.00 -1.00 -1.00
  virtual crystal weights 
   VCA    =   1.00  1.00  1.00  1.00
   NELECT =     246.0000    total number of electrons
   NUPDOWN=      -1.0000    fix difference up-down

 DOS related values:
   EMIN   =  10.00;   EMAX   =-10.00  energy-range for DOS
   EFERMI =   0.00
   ISMEAR =     0;   SIGMA  =   0.10  broadening in eV -4-tet -1-fermi 0-gaus

 Electronic relaxation 2 (details)
   IALGO  =     53    algorithm
   LDIAG  =      T    sub-space diagonalisation (order eigenvalues)
   LSUBROT=      F    optimize rotation matrix (better conditioning)
   TURBO    =      0    0=normal 1=particle mesh
   IRESTART =      0    0=no restart 2=restart with 2 vectors
   NREBOOT  =      0    no. of reboots
   NMIN     =      0    reboot dimension
   EREF     =   0.00    reference energy to select bands
   IMIX   =      4    mixing-type and parameters
     AMIX     =   0.40;   BMIX     =  1.00
     AMIX_MAG =   1.60;   BMIX_MAG =  1.00
     AMIN     =   0.10
     WC   =   100.;   INIMIX=   1;  MIXPRE=   1;  MAXMIX= -45

 Intra band minimization:
   WEIMIN = 0.0000     energy-eigenvalue tresh-hold
   EBREAK =  0.16E-06  absolut break condition
   DEPER  =   0.30     relativ break condition  

   TIME   =   0.20     timestep for ELM

  volume/ion in A,a.u.               =      55.73       376.12
  Fermi-wavevector in a.u.,A,eV,Ry     =   0.697782  1.318616  6.624668  0.486899
  Thomas-Fermi vector in A             =   1.781204
 
 Write flags
   LWAVE        =      T    write WAVECAR
   LDOWNSAMPLE  =      F    k-point downsampling of WAVECAR
   LCHARG       =      T    write CHGCAR
   LVTOT        =      F    write LOCPOT, total local potential
   LVHAR        =      F    write LOCPOT, Hartree potential only
   LELF         =      F    write electronic localiz. function (ELF)
   LORBIT       =     11    0 simple, 1 ext, 2 COOP (PROOUT), +10 PAW based schemes


 Dipole corrections
   LMONO  =      F    monopole corrections only (constant potential shift)
   LDIPOL =      T    correct potential (dipole corrections)
   IDIPOL =      3    1-x, 2-y, 3-z, 4-all directions 
   EPSILON=  1.0000000 bulk dielectric constant

 Exchange correlation treatment:
   GGA     =    PE    GGA type
   LEXCH   =     8    internal setting for exchange type
   VOSKOWN=      0    Vosko Wilk Nusair interpolation
   EXXOEP  =     0    0=HF, 1=EXX-LHF (local Hartree Fock) 2=EXX OEP
   LHFCALC =     T    Hartree Fock is set to
   LSYMGRAD=     F    symmetrize gradient (conserves proper symmetry)
   PRECFOCK=normal    Normal, Fast or Accurate (Low or Medium for compatibility)
   LRHFCALC=     F    long range Hartree Fock
   LRSCOR  =     F    long range correlation only (use DFT for short range part)
   LTHOMAS =     F    Thomas Fermi screening in HF
   LMODELHF=     F    short range full HF, long range fraction AEXX
   ENCUT4O =  -1.0   cutoff for four orbital integrals eV
   LMAXFOCK=     4    L truncation for augmentation on plane wave grid
   LMAXFOCKAE=  -1    L truncation for all-electron charge restoration on plane wave grid
   NMAXFOCKAE=   1    number of basis functions for all-electron charge restoration
   LFOCKAEDFT=     F  apply the AE augmentation even for DFT
   NKREDX  =     1    reduce k-point grid by
   NKREDY  =     1    reduce k-point grid by
   NKREDZ  =     1    reduce k-point grid by
   SHIFTRED=     F    shift reduced grid of Gamma
   HFKIDENT=     F    idential grid for each k-point
   ODDONLY =     F    use only odd q-grid points
   EVENONLY=     F    use only even q-grid points
   HFALPHA =   -1.0000 decay constant for conv. correction
   MCALPHA =    0.0000 extent of test-charge in conv. correction in multipole expansion
   AEXX    =    0.2500 exact exchange contribution
   HFSCREEN=    0.2000 screening length (either q_TF or 0.3 A-1)
   HFSCREENC=   0.2000 screening length for correlation (either q_TF or 0.3 A-1)
   HFRCUT  =    0.0000 spherical cutoff for potential kernel
   ALDAX   =    0.7500 LDA exchange part
   AGGAX   =    0.7500 GGA exchange part
   ALDAC   =    1.0000 LDA correlation
   AGGAC   =    1.0000 GGA correlation
   ENCUTFOCK=  -1.0 apply spherical cutoff to Coloumb kernel
   NBANDSGWLOW=     1    first orbital included in HF term
   NBLOCK_FOCK=    64    blocking factor in FOCK_ACC
 Linear response parameters
   LEPSILON=     F    determine dielectric tensor
   LRPA    =     F    only Hartree local field effects (RPA)
   LNABLA  =     F    use nabla operator in PAW spheres
   LVEL    =     F    velocity operator in full k-point grid
   LINTERFAST=   F  fast interpolation
   KINTER  =     0    interpolate to denser k-point grid
   CSHIFT  =0.1000    complex shift for real part using Kramers Kronig
   OMEGAMAX=  -1.0    maximum frequency
   DEG_THRESHOLD= 0.2000000E-02 threshold for treating states as degnerate
   RTIME   =   -0.100 relaxation time in fs
  (WPLASMAI=    0.000 imaginary part of plasma frequency in eV, 0.658/RTIME)
   DFIELD  = 0.0000000 0.0000000 0.0000000 field for delta impulse in time
 
 Orbital magnetization related:
   ORBITALMAG=     F  switch on orbital magnetization
   LCHIMAG   =     F  perturbation theory with respect to B field
   DQ        =  0.001000  dq finite difference perturbation B field
   LLRAUG    =     F  two centre corrections for induced B field



--------------------------------------------------------------------------------------------------------


 Static calculation
 charge density and potential will be updated during run
 spin polarized calculation
 Conjugate gradient for all bands (Freysoldt, et al. PRB 79, 241103 (2009))
 perform sub-space diagonalisation
    before iterative eigenvector-optimisation
 modified Broyden-mixing scheme, WC =      100.0
 initial mixing is a Kerker type mixing with AMIX =  0.4000 and BMIX =      1.0000
 Hartree-type preconditioning will be used
 using additional bands           33
 reciprocal scheme for non local part
 use partial core corrections
 no Harris-corrections to forces 
 use gradient corrections 
 use of overlap-Matrix (Vanderbilt PP)
 Gauss-broadening in eV      SIGMA  =   0.10


--------------------------------------------------------------------------------------------------------


  energy-cutoff  :      500.00
  volume of cell :     3176.88
      direct lattice vectors                 reciprocal lattice vectors
    12.810000000  0.000000000  0.000000000     0.078064012  0.000000000  0.000000000
     0.000000000 12.400000000  0.000000000     0.000000000  0.080645161  0.000000000
     0.000000000  0.000000000 20.000000000     0.000000000  0.000000000  0.050000000

  length of vectors
    12.810000000 12.400000000 20.000000000     0.078064012  0.080645161  0.050000000


 
 old parameters found on file WAVECAR:
  energy-cutoff  :      500.00
  volume of cell :     3176.88
      direct lattice vectors                 reciprocal lattice vectors
    12.810000000  0.000000000  0.000000000     0.078064012  0.000000000  0.000000000
     0.000000000 12.400000000  0.000000000     0.000000000  0.080645161  0.000000000
     0.000000000  0.000000000 20.000000000     0.000000000  0.000000000  0.050000000

  length of vectors

 
 k-points in units of 2pi/SCALE and weight: KPOINTS created by Atomic Simulation Env
   0.01951600  0.02016129  0.00000000       0.500
  -0.01951600  0.02016129  0.00000000       0.500
 
 k-points in reciprocal lattice and weights: KPOINTS created by Atomic Simulation Env
   0.25000000  0.25000000  0.00000000       0.500
  -0.25000000  0.25000000  0.00000000       0.500
 
 position of ions in fractional coordinates (direct lattice) 
   0.22096847  0.99983207  0.50113724
   0.05249686  0.10101777  0.50143739
   0.10934687  0.00090566  0.50089383
   0.27488605  0.09984320  0.50181994
   0.21812647  0.19964835  0.50217636
   0.05238079  0.30109548  0.50211504
   0.10695076  0.20073393  0.50204694
   0.27265809  0.29832497  0.50172264
   0.21906849  0.40040713  0.50035606
   0.05576912  0.50163157  0.50127868
   0.10882626  0.40040178  0.50155217
   0.22671876  0.59548942  0.49808289
   0.05822395  0.70088093  0.50003656
   0.11463232  0.60020388  0.49998705
   0.28401325  0.69827739  0.49812558
   0.22428172  0.79841995  0.49934822
   0.05550056  0.90103124  0.50016688
   0.11258528  0.80048677  0.49966344
   0.27788119  0.89935008  0.50023822
   0.55373802  0.00200791  0.50005762
   0.38608553  0.10129635  0.50099773
   0.44278431  0.00110641  0.50066397
   0.60691981  0.10414031  0.49810609
   0.55029598  0.20527487  0.49556763
   0.43849274  0.20401654  0.49887965
   0.60522746  0.30820637  0.49114385
   0.55718493  0.79745432  0.50141291
   0.38916694  0.89941090  0.50041555
   0.44261875  0.79588940  0.49965537
   0.60935369  0.90066671  0.50103677
   0.88667214  0.00267739  0.50029982
   0.71861757  0.10516385  0.49860014
   0.77489589  0.00403472  0.49978799
   0.94087956  0.10278977  0.50095899
   0.88490530  0.20372242  0.50113681
   0.71770127  0.30873993  0.49826896
   0.77289322  0.20653200  0.49948920
   0.94103689  0.30296262  0.50183251
   0.88738232  0.40423865  0.50245119
   0.77569218  0.40876985  0.50273672
   0.94502680  0.50309078  0.50246309
   0.89081548  0.60411729  0.50246961
   0.72244888  0.70435398  0.50364052
   0.78053482  0.60344010  0.50465496
   0.94662130  0.70284367  0.50100489
   0.88985891  0.80252025  0.50105039
   0.72115275  0.90315862  0.50088674
   0.77820579  0.80336237  0.50201441
   0.94376124  0.90266112  0.50034574
   0.27705420  0.49561090  0.49657804
   0.38072351  0.29860583  0.50034746
   0.54875368  0.39843199  0.47848273
   0.39080110  0.69990250  0.49769361
   0.61420212  0.70271712  0.50284449
   0.72712046  0.50774479  0.50703871
   0.41831696  0.44223419  0.48438311
   0.57723225  0.54799166  0.50712689
 
 position of ions in cartesian coordinates  (Angst):
   2.83060608 12.39791765 10.02274478
   0.67248478  1.25262029 10.02874781
   1.40073346  0.01123019 10.01787667
   3.52129027  1.23805563 10.03639871
   2.79420006  2.47563951 10.04352720
   0.67099794  3.73358396 10.04230075
   1.37003926  2.48910075 10.04093880
   3.49275016  3.69922965 10.03445277
   2.80626734  4.96504839 10.00712124
   0.71440246  6.22023146 10.02557358
   1.39406436  4.96498212 10.03104349
   2.90426727  7.38406875  9.96165787
   0.74584880  8.69092358 10.00073121
   1.46843998  7.44252814  9.99974103
   3.63820970  8.65863960  9.96251157
   2.87304886  9.90040742  9.98696447
   0.71096224 11.17278736 10.00333751
   1.44221745  9.92603596  9.99326878
   3.55965803 11.15194096 10.00476434
   7.09338404  0.02489813 10.00115232
   4.94575559  1.25607475 10.01995461
   5.67206695  0.01371943 10.01327950
   7.77464273  1.29133983  9.96212184
   7.04929154  2.54540835  9.91135261
   5.61709196  2.52980505  9.97759301
   7.75296382  3.82175900  9.82287710
   7.13753897  9.88843359 10.02825811
   4.98522856 11.15269517 10.00831108
   5.66994617  9.86902855  9.99310749
   7.80582074 11.16826718 10.02073539
  11.35827006  0.03319966 10.00599633
   9.20549111  1.30403173  9.97200276
   9.92641641  0.05003052  9.99575982
  12.05266714  1.27459314 10.01917987
  11.33563688  2.52615800 10.02273615
   9.19375326  3.82837512  9.96537922
   9.90076209  2.56099682  9.98978397
  12.05468253  3.75673651 10.03665017
  11.36736753  5.01255921 10.04902373
   9.93661686  5.06874618 10.05473449
  12.10579334  6.23832563 10.04926181
  11.41134634  7.49105442 10.04939224
   9.25457017  8.73398930 10.07281036
   9.99865107  7.48265729 10.09309923
  12.12621879  8.71526152 10.02009773
  11.39909265  9.95125112 10.02100781
   9.23796666 11.19916690 10.01773488
   9.96881621  9.96169333 10.04028811
  12.08958144 11.19299784 10.00691484
   3.54906436  6.14557515  9.93156088
   4.87706820  3.70271224 10.00694919
   7.02953460  4.94055663  9.56965458
   5.00616213  8.67879105  9.95387218
   7.86792911  8.71369234 10.05688974
   9.31441308  6.29603538 10.14077413
   5.35864023  5.48370400  9.68766224
   7.39434509  6.79509662 10.14253789
 


--------------------------------------------------------------------------------------------------------


 k-point  1 :   0.2500 0.2500 0.0000  plane waves:   80679
 k-point  2 :  -0.2500 0.2500 0.0000  plane waves:   80679

 maximum and minimum number of plane-waves per node :      2549     2492

 maximum number of plane-waves:     80679
 maximum index in each direction: 
   IXMAX=   23   IYMAX=   22   IZMAX=   36
   IXMIN=  -23   IYMIN=  -22   IZMIN=  -36


 parallel 3D FFT for wavefunctions:
    minimum data exchange during FFTs selected (reduces bandwidth)
 parallel 3D FFT for charge:
    minimum data exchange during FFTs selected (reduces bandwidth)


 FFT grid for exact exchange (Hartree Fock) 
  NGX = 72; NGY = 70; NGZ =112

 
 Radii for the augmentation spheres in the non-local exchange
 for species   1 augmentation radius   0.874 (default was   0.699)
       energy cutoff for augmentation   2000.0
 for species   2 augmentation radius   0.886 (default was   0.709)
       energy cutoff for augmentation   2000.0
 for species   3 augmentation radius   1.263 (default was   1.010)
       energy cutoff for augmentation   2000.0
 for species   4 augmentation radius   1.190 (default was   0.952)
       energy cutoff for augmentation   2000.0

 real space projection operators:
  total allocation   :       2448.30 KBytes
  max/ min on nodes  :        106.49         48.52

 Maximum index for augmentation-charges in exchange          144
  SETUP_FOCK is finished

 total amount of memory used by VASP MPI-rank0   162361. kBytes
=======================================================================

   base      :      30000. kBytes
   nonl-proj :       5277. kBytes
   fftplans  :      13453. kBytes
   grid      :      34560. kBytes
   one-center:         62. kBytes
   HF        :         23. kBytes
   nonlr-proj:       1622. kBytes
   wavefun   :      77364. kBytes
 
     INWAV:  cpu time    3.5178: real time    3.5183
 Broyden mixing: mesh for mixing (old mesh)
   NGX = 47   NGY = 45   NGZ = 73
  (NGX  =192   NGY  =180   NGZ  =300)
  gives a total of 154395 points

 charge density for first step will be calculated from the start-wavefunctions


--------------------------------------------------------------------------------------------------------


 Maximum index for augmentation-charges           92 (set IRDMAX)


--------------------------------------------------------------------------------------------------------


 initial charge from wavefunction
 First call to EWALD:  gamma=   0.121
 Maximum number of real-space cells 3x 3x 2
 Maximum number of reciprocal cells 2x 2x 4

    FEWALD:  cpu time    0.0035: real time    0.0035


--------------------------------------- Iteration      1(   1)  ---------------------------------------


    POTLOK:  cpu time    1.3232: real time    1.3265
    SETDIJ:  cpu time    2.0854: real time    2.0861
    TRIAL :  cpu time  530.9554: real time  531.0453
    CORREC:  cpu time    0.0023: real time    0.0026
    CHARGE:  cpu time    1.6686: real time    1.6689
    --------------------------------------------
      LOOP:  cpu time  536.0509: real time  536.1481

 eigenvalue-minimisations  :     0
 total energy-change (2. order) :-0.5876878E+03  (-0.4792140E+00)
 number of electron     246.0000020 magnetization       1.9915748
 augmentation part       18.1393485 magnetization       1.5431732

 DIPCOR: dipole corrections for dipol
 direction  3 min pos     1,
 dipolmoment           0.000000      0.000000      0.008920 electrons x Angstroem
 Tr[quadrupol]     -6626.741569

 energy correction for charged system         0.000000 eV
 dipol+quadrupol energy correction           -0.000002 eV
 added-field ion interaction          0.000282 eV  (added to PSCEN)


 Free energy of the ion-electron system (eV)
  ---------------------------------------------------
  alpha Z        PSCENC =       104.83744193
  Ewald energy   TEWEN  =     39649.76163782
  -Hartree energ DENC   =    -49147.40055605
  -exchange      EXHF   =       567.96896365
  -V(xc)+E(xc)   XCENC  =       655.97336725
  PAW double counting   =     26740.57590165   -26944.12822874
  entropy T*S    EENTRO =        -0.01854025
  eigenvalues    EBANDS =     -3246.81667349
  atomic energy  EATOM  =     11031.56538257
  ---------------------------------------------------
  free energy    TOTEN  =      -587.68783784 eV

  energy without entropy =     -587.66929759  energy(sigma->0) =     -587.67856772
  exchange ACFDT corr.  =        -0.04395678  see jH, gK, PRB 81, 115126


--------------------------------------------------------------------------------------------------------




--------------------------------------- Iteration      1(   2)  ---------------------------------------


    POTLOK:  cpu time    1.3261: real time    1.3262
    SETDIJ:  cpu time    2.0778: real time    2.0828
    TRIAL :  cpu time  533.0812: real time  533.1426
    CORREC:  cpu time    0.0021: real time    0.0024
    CHARGE:  cpu time    1.6703: real time    1.6706
    --------------------------------------------
      LOOP:  cpu time  538.1598: real time  538.2268

 eigenvalue-minimisations  :     0
 total energy-change (2. order) :-0.3910252E+00  (-0.4195211E+00)
 number of electron     246.0000020 magnetization       2.0023050
 augmentation part       18.1570235 magnetization       1.5705642

 DIPCOR: dipole corrections for dipol
 direction  3 min pos     1,
 dipolmoment           0.000000      0.000000      0.008473 electrons x Angstroem
 Tr[quadrupol]     -6626.583007

 energy correction for charged system         0.000000 eV
 dipol+quadrupol energy correction           -0.000002 eV
 added-field ion interaction          0.000268 eV  (added to PSCEN)


 Free energy of the ion-electron system (eV)
  ---------------------------------------------------
  alpha Z        PSCENC =       104.83742803
  Ewald energy   TEWEN  =     39649.76163782
  -Hartree energ DENC   =    -49135.97550948
  -exchange      EXHF   =       567.94247347
  -V(xc)+E(xc)   XCENC  =       655.70734753
  PAW double counting   =     26868.82430544   -27073.61762862
  entropy T*S    EENTRO =        -0.01295977
  eigenvalues    EBANDS =     -3257.10575956
  atomic energy  EATOM  =     11031.56538257
  ---------------------------------------------------
  free energy    TOTEN  =      -588.07886306 eV

  energy without entropy =     -588.06590329  energy(sigma->0) =     -588.07238317
  exchange ACFDT corr.  =        -0.02097005  see jH, gK, PRB 81, 115126


--------------------------------------------------------------------------------------------------------




--------------------------------------- Iteration      1(   3)  ---------------------------------------


    POTLOK:  cpu time    1.3282: real time    1.3283
    SETDIJ:  cpu time    2.0805: real time    2.0806
    TRIAL :  cpu time  534.9943: real time  535.0732
    CORREC:  cpu time    0.0023: real time    0.0025
    CHARGE:  cpu time    1.6753: real time    1.6755
    --------------------------------------------
      LOOP:  cpu time  540.0826: real time  540.1621

 eigenvalue-minimisations  :     0
 total energy-change (2. order) :-0.3125833E+00  (-0.2355534E+00)
 number of electron     246.0000020 magnetization       2.0071208
 augmentation part       18.1528072 magnetization       1.5896250

 DIPCOR: dipole corrections for dipol
 direction  3 min pos     1,
 dipolmoment           0.000000      0.000000     -0.002696 electrons x Angstroem
 Tr[quadrupol]     -6626.428589

 energy correction for charged system         0.000000 eV
 dipol+quadrupol energy correction           -0.000000 eV
 added-field ion interaction         -0.000085 eV  (added to PSCEN)


 Free energy of the ion-electron system (eV)
  ---------------------------------------------------
  alpha Z        PSCENC =       104.83707698
  Ewald energy   TEWEN  =     39649.76163782
  -Hartree energ DENC   =    -49124.95598057
  -exchange      EXHF   =       567.95036959
  -V(xc)+E(xc)   XCENC  =       655.41528517
  PAW double counting   =     27036.45206575   -27242.17543441
  entropy T*S    EENTRO =        -0.00913821
  eigenvalues    EBANDS =     -3267.22888955
  atomic energy  EATOM  =     11031.56538257
  ---------------------------------------------------
  free energy    TOTEN  =      -588.39144641 eV

  energy without entropy =     -588.38230820  energy(sigma->0) =     -588.38687731
  exchange ACFDT corr.  =        -0.00878115  see jH, gK, PRB 81, 115126


--------------------------------------------------------------------------------------------------------




--------------------------------------- Iteration      1(   4)  ---------------------------------------


    POTLOK:  cpu time    1.3297: real time    1.3297
    SETDIJ:  cpu time    2.0767: real time    2.0769
    TRIAL :  cpu time  532.5461: real time  532.6160
    CORREC:  cpu time    0.0021: real time    0.0024
    CHARGE:  cpu time    1.6651: real time    1.6652
    --------------------------------------------
      LOOP:  cpu time  537.6219: real time  537.6924

 eigenvalue-minimisations  :     0
 total energy-change (2. order) :-0.1740650E+00  (-0.1294378E+00)
 number of electron     246.0000020 magnetization       2.0077495
 augmentation part       18.1434572 magnetization       1.5978152

 DIPCOR: dipole corrections for dipol
 direction  3 min pos     1,
 dipolmoment           0.000000      0.000000     -0.005180 electrons x Angstroem
 Tr[quadrupol]     -6626.361105

 energy correction for charged system         0.000000 eV
 dipol+quadrupol energy correction           -0.000001 eV
 added-field ion interaction         -0.000164 eV  (added to PSCEN)


 Free energy of the ion-electron system (eV)
  ---------------------------------------------------
  alpha Z        PSCENC =       104.83699794
  Ewald energy   TEWEN  =     39649.76163782
  -Hartree energ DENC   =    -49118.11988787
  -exchange      EXHF   =       568.06845268
  -V(xc)+E(xc)   XCENC  =       655.24304899
  PAW double counting   =     27179.75403687   -27385.10233416
  entropy T*S    EENTRO =        -0.00687487
  eigenvalues    EBANDS =     -3274.56370810
  atomic energy  EATOM  =     11031.56538257
  ---------------------------------------------------
  free energy    TOTEN  =      -588.56551145 eV

  energy without entropy =     -588.55863658  energy(sigma->0) =     -588.56207402
  exchange ACFDT corr.  =        -0.00455862  see jH, gK, PRB 81, 115126


--------------------------------------------------------------------------------------------------------




--------------------------------------- Iteration      1(   5)  ---------------------------------------


    POTLOK:  cpu time    1.3275: real time    1.3276
    SETDIJ:  cpu time    2.0852: real time    2.0853
    TRIAL :  cpu time  532.1197: real time  532.1796
    CORREC:  cpu time    0.0022: real time    0.0024
    CHARGE:  cpu time    1.6641: real time    1.6643
    --------------------------------------------
      LOOP:  cpu time  537.2008: real time  537.2613

 eigenvalue-minimisations  :     0
 total energy-change (2. order) :-0.9867016E-01  (-0.7388202E-01)
 number of electron     246.0000020 magnetization       2.0066087
 augmentation part       18.1481783 magnetization       1.5987770

 DIPCOR: dipole corrections for dipol
 direction  3 min pos     1,
 dipolmoment           0.000000      0.000000     -0.003207 electrons x Angstroem
 Tr[quadrupol]     -6626.382050

 energy correction for charged system         0.000000 eV
 dipol+quadrupol energy correction           -0.000000 eV
 added-field ion interaction         -0.000101 eV  (added to PSCEN)


 Free energy of the ion-electron system (eV)
  ---------------------------------------------------
  alpha Z        PSCENC =       104.83706076
  Ewald energy   TEWEN  =     39649.76163782
  -Hartree energ DENC   =    -49117.38639374
  -exchange      EXHF   =       568.29245905
  -V(xc)+E(xc)   XCENC  =       655.23380313
  PAW double counting   =     27281.77836412   -27486.28291619
  entropy T*S    EENTRO =        -0.00547872
  eigenvalues    EBANDS =     -3276.45670426
  atomic energy  EATOM  =     11031.56538257
  ---------------------------------------------------
  free energy    TOTEN  =      -588.66418162 eV

  energy without entropy =     -588.65870290  energy(sigma->0) =     -588.66144226
  exchange ACFDT corr.  =        -0.00301547  see jH, gK, PRB 81, 115126


--------------------------------------------------------------------------------------------------------




--------------------------------------- Iteration      1(   6)  ---------------------------------------


    POTLOK:  cpu time    1.3248: real time    1.3249
    SETDIJ:  cpu time    2.0744: real time    2.0745
    TRIAL :  cpu time  530.0875: real time  530.1412
    CORREC:  cpu time    0.0020: real time    0.0022
    CHARGE:  cpu time    1.6631: real time    1.6633
    --------------------------------------------
      LOOP:  cpu time  535.1544: real time  535.2086

 eigenvalue-minimisations  :     0
 total energy-change (2. order) :-0.5947914E-01  (-0.4693337E-01)
 number of electron     246.0000020 magnetization       2.0052055
 augmentation part       18.1614915 magnetization       1.5969190

 DIPCOR: dipole corrections for dipol
 direction  3 min pos     1,
 dipolmoment           0.000000      0.000000     -0.003276 electrons x Angstroem
 Tr[quadrupol]     -6626.442953

 energy correction for charged system         0.000000 eV
 dipol+quadrupol energy correction           -0.000000 eV
 added-field ion interaction         -0.000104 eV  (added to PSCEN)


 Free energy of the ion-electron system (eV)
  ---------------------------------------------------
  alpha Z        PSCENC =       104.83705856
  Ewald energy   TEWEN  =     39649.76163782
  -Hartree energ DENC   =    -49121.12451651
  -exchange      EXHF   =       568.55959799
  -V(xc)+E(xc)   XCENC  =       655.33903135
  PAW double counting   =     27347.71505495   -27551.89161146
  entropy T*S    EENTRO =        -0.00453830
  eigenvalues    EBANDS =     -3273.47981732
  atomic energy  EATOM  =     11031.56538257
  ---------------------------------------------------
  free energy    TOTEN  =      -588.72366076 eV

  energy without entropy =     -588.71912246  energy(sigma->0) =     -588.72139161
  exchange ACFDT corr.  =        -0.00226331  see jH, gK, PRB 81, 115126


--------------------------------------------------------------------------------------------------------




--------------------------------------- Iteration      1(   7)  ---------------------------------------


    POTLOK:  cpu time    1.3252: real time    1.3254
    SETDIJ:  cpu time    2.0786: real time    2.0787
    TRIAL :  cpu time  530.4136: real time  530.4929
    CORREC:  cpu time    0.0020: real time    0.0023
    CHARGE:  cpu time    1.6583: real time    1.6585
    --------------------------------------------
      LOOP:  cpu time  535.4799: real time  535.5600

 eigenvalue-minimisations  :     0
 total energy-change (2. order) :-0.3911800E-01  (-0.3056563E-01)
 number of electron     246.0000020 magnetization       2.0040500
 augmentation part       18.1728945 magnetization       1.5945013

 DIPCOR: dipole corrections for dipol
 direction  3 min pos     1,
 dipolmoment           0.000000      0.000000     -0.005244 electrons x Angstroem
 Tr[quadrupol]     -6626.499160

 energy correction for charged system         0.000000 eV
 dipol+quadrupol energy correction           -0.000001 eV
 added-field ion interaction         -0.000166 eV  (added to PSCEN)


 Free energy of the ion-electron system (eV)
  ---------------------------------------------------
  alpha Z        PSCENC =       104.83699591
  Ewald energy   TEWEN  =     39649.76163782
  -Hartree energ DENC   =    -49125.77766158
  -exchange      EXHF   =       568.79432897
  -V(xc)+E(xc)   XCENC  =       655.46915756
  PAW double counting   =     27386.61461288   -27590.95997928
  entropy T*S    EENTRO =        -0.00387394
  eigenvalues    EBANDS =     -3269.06271530
  atomic energy  EATOM  =     11031.56538257
  ---------------------------------------------------
  free energy    TOTEN  =      -588.76277876 eV

  energy without entropy =     -588.75890482  energy(sigma->0) =     -588.76084179
  exchange ACFDT corr.  =        -0.00180804  see jH, gK, PRB 81, 115126


--------------------------------------------------------------------------------------------------------




--------------------------------------- Iteration      1(   8)  ---------------------------------------


    POTLOK:  cpu time    1.3261: real time    1.3262
    SETDIJ:  cpu time    2.0800: real time    2.0803
    TRIAL :  cpu time  530.2810: real time  530.3505
    CORREC:  cpu time    0.0021: real time    0.0024
    CHARGE:  cpu time    1.6509: real time    1.6510
    --------------------------------------------
      LOOP:  cpu time  535.3426: real time  535.4159

 eigenvalue-minimisations  :     0
 total energy-change (2. order) :-0.2601413E-01  (-0.2054309E-01)
 number of electron     246.0000020 magnetization       2.0031723
 augmentation part       18.1791689 magnetization       1.5922589

 DIPCOR: dipole corrections for dipol
 direction  3 min pos     1,
 dipolmoment           0.000000      0.000000     -0.007179 electrons x Angstroem
 Tr[quadrupol]     -6626.532050

 energy correction for charged system         0.000000 eV
 dipol+quadrupol energy correction           -0.000001 eV
 added-field ion interaction         -0.000227 eV  (added to PSCEN)


 Free energy of the ion-electron system (eV)
  ---------------------------------------------------
  alpha Z        PSCENC =       104.83693409
  Ewald energy   TEWEN  =     39649.76163782
  -Hartree energ DENC   =    -49128.98399676
  -exchange      EXHF   =       568.95752322
  -V(xc)+E(xc)   XCENC  =       655.56405671
  PAW double counting   =     27406.77616163   -27611.39001550
  entropy T*S    EENTRO =        -0.00339448
  eigenvalues    EBANDS =     -3265.87260272
  atomic energy  EATOM  =     11031.56538257
  ---------------------------------------------------
  free energy    TOTEN  =      -588.78879289 eV

  energy without entropy =     -588.78539841  energy(sigma->0) =     -588.78709565
  exchange ACFDT corr.  =        -0.00150471  see jH, gK, PRB 81, 115126


--------------------------------------------------------------------------------------------------------




--------------------------------------- Iteration      1(   9)  ---------------------------------------


    POTLOK:  cpu time    1.3250: real time    1.3251
    SETDIJ:  cpu time    2.0810: real time    2.0812
    TRIAL :  cpu time  529.5815: real time  529.6418
    CORREC:  cpu time    0.0021: real time    0.0024
    CHARGE:  cpu time    1.6537: real time    1.6539
    --------------------------------------------
      LOOP:  cpu time  534.6458: real time  534.7067

 eigenvalue-minimisations  :     0
 total energy-change (2. order) :-0.1790909E-01  (-0.1462032E-01)
 number of electron     246.0000020 magnetization       2.0025009
 augmentation part       18.1818567 magnetization       1.5904253

 DIPCOR: dipole corrections for dipol
 direction  3 min pos     1,
 dipolmoment           0.000000      0.000000     -0.008381 electrons x Angstroem
 Tr[quadrupol]     -6626.544211

 energy correction for charged system         0.000000 eV
 dipol+quadrupol energy correction           -0.000002 eV
 added-field ion interaction         -0.000265 eV  (added to PSCEN)


 Free energy of the ion-electron system (eV)
  ---------------------------------------------------
  alpha Z        PSCENC =       104.83689558
  Ewald energy   TEWEN  =     39649.76163782
  -Hartree energ DENC   =    -49130.39886325
  -exchange      EXHF   =       569.05334261
  -V(xc)+E(xc)   XCENC  =       655.61230346
  PAW double counting   =     27415.43494051   -27620.19662077
  entropy T*S    EENTRO =        -0.00304422
  eigenvalues    EBANDS =     -3264.47232604
  atomic energy  EATOM  =     11031.56538257
  ---------------------------------------------------
  free energy    TOTEN  =      -588.80670198 eV

  energy without entropy =     -588.80365775  energy(sigma->0) =     -588.80517987
  exchange ACFDT corr.  =        -0.00129386  see jH, gK, PRB 81, 115126


--------------------------------------------------------------------------------------------------------




--------------------------------------- Iteration      1(  10)  ---------------------------------------


    POTLOK:  cpu time    1.3238: real time    1.3239
    SETDIJ:  cpu time    2.0822: real time    2.0823
    TRIAL :  cpu time  531.0613: real time  531.1154
    CORREC:  cpu time    0.0021: real time    0.0023
    CHARGE:  cpu time    1.6547: real time    1.6548
    --------------------------------------------
      LOOP:  cpu time  536.1264: real time  536.1837

 eigenvalue-minimisations  :     0
 total energy-change (2. order) :-0.1298363E-01  (-0.1068839E-01)
 number of electron     246.0000020 magnetization       2.0019897
 augmentation part       18.1833204 magnetization       1.5889740

 DIPCOR: dipole corrections for dipol
 direction  3 min pos     1,
 dipolmoment           0.000000      0.000000     -0.008993 electrons x Angstroem
 Tr[quadrupol]     -6626.545450

 energy correction for charged system         0.000000 eV
 dipol+quadrupol energy correction           -0.000002 eV
 added-field ion interaction         -0.000284 eV  (added to PSCEN)


 Free energy of the ion-electron system (eV)
  ---------------------------------------------------
  alpha Z        PSCENC =       104.83687595
  Ewald energy   TEWEN  =     39649.76163782
  -Hartree energ DENC   =    -49130.66304899
  -exchange      EXHF   =       569.10495020
  -V(xc)+E(xc)   XCENC  =       655.62787468
  PAW double counting   =     27417.96283861   -27622.72665502
  entropy T*S    EENTRO =        -0.00278675
  eigenvalues    EBANDS =     -3264.28649721
  atomic energy  EATOM  =     11031.56538257
  ---------------------------------------------------
  free energy    TOTEN  =      -588.81968561 eV

  energy without entropy =     -588.81689886  energy(sigma->0) =     -588.81829224
  exchange ACFDT corr.  =        -0.00114390  see jH, gK, PRB 81, 115126


--------------------------------------------------------------------------------------------------------




--------------------------------------- Iteration      1(  11)  ---------------------------------------


    POTLOK:  cpu time    1.3202: real time    1.3202
    SETDIJ:  cpu time    2.0844: real time    2.0845
    TRIAL :  cpu time  530.7417: real time  530.8052
    CORREC:  cpu time    0.0021: real time    0.0023
    CHARGE:  cpu time    1.6558: real time    1.6559
    --------------------------------------------
      LOOP:  cpu time  535.8064: real time  535.8733

 eigenvalue-minimisations  :     0
 total energy-change (2. order) :-0.9573366E-02  (-0.7880590E-02)
 number of electron     246.0000020 magnetization       2.0016107
 augmentation part       18.1848688 magnetization       1.5876522

 DIPCOR: dipole corrections for dipol
 direction  3 min pos     1,
 dipolmoment           0.000000      0.000000     -0.009283 electrons x Angstroem
 Tr[quadrupol]     -6626.544339

 energy correction for charged system         0.000000 eV
 dipol+quadrupol energy correction           -0.000002 eV
 added-field ion interaction         -0.000293 eV  (added to PSCEN)


 Free energy of the ion-electron system (eV)
  ---------------------------------------------------
  alpha Z        PSCENC =       104.83686662
  Ewald energy   TEWEN  =     39649.76163782
  -Hartree energ DENC   =    -49130.56776273
  -exchange      EXHF   =       569.13625653
  -V(xc)+E(xc)   XCENC  =       655.63069723
  PAW double counting   =     27417.80527015   -27622.51615309
  entropy T*S    EENTRO =        -0.00259666
  eigenvalues    EBANDS =     -3264.47866733
  atomic energy  EATOM  =     11031.56538257
  ---------------------------------------------------
  free energy    TOTEN  =      -588.82925898 eV

  energy without entropy =     -588.82666231  energy(sigma->0) =     -588.82796064
  exchange ACFDT corr.  =        -0.00103590  see jH, gK, PRB 81, 115126


--------------------------------------------------------------------------------------------------------




--------------------------------------- Iteration      1(  12)  ---------------------------------------


    POTLOK:  cpu time    1.3172: real time    1.3174
    SETDIJ:  cpu time    2.0828: real time    2.0830
    TRIAL :  cpu time  530.8325: real time  530.8994
    CORREC:  cpu time    0.0018: real time    0.0021
    CHARGE:  cpu time    1.6520: real time    1.6520
    --------------------------------------------
      LOOP:  cpu time  535.8885: real time  535.9562

 eigenvalue-minimisations  :     0
 total energy-change (2. order) :-0.7156802E-02  (-0.6015477E-02)
 number of electron     246.0000020 magnetization       2.0013337
 augmentation part       18.1865019 magnetization       1.5862279

 DIPCOR: dipole corrections for dipol
 direction  3 min pos     1,
 dipolmoment           0.000000      0.000000     -0.009431 electrons x Angstroem
 Tr[quadrupol]     -6626.544910

 energy correction for charged system         0.000000 eV
 dipol+quadrupol energy correction           -0.000003 eV
 added-field ion interaction         -0.000298 eV  (added to PSCEN)


 Free energy of the ion-electron system (eV)
  ---------------------------------------------------
  alpha Z        PSCENC =       104.83686189
  Ewald energy   TEWEN  =     39649.76163782
  -Hartree energ DENC   =    -49130.59334162
  -exchange      EXHF   =       569.16223398
  -V(xc)+E(xc)   XCENC  =       655.63421964
  PAW double counting   =     27416.97022750   -27621.66662148
  entropy T*S    EENTRO =        -0.00245503
  eigenvalues    EBANDS =     -3264.50441941
  atomic energy  EATOM  =     11031.56538257
  ---------------------------------------------------
  free energy    TOTEN  =      -588.83641578 eV

  energy without entropy =     -588.83396075  energy(sigma->0) =     -588.83518826
  exchange ACFDT corr.  =        -0.00095748  see jH, gK, PRB 81, 115126


--------------------------------------------------------------------------------------------------------




--------------------------------------- Iteration      1(  13)  ---------------------------------------


    POTLOK:  cpu time    1.3190: real time    1.3191
    SETDIJ:  cpu time    2.0779: real time    2.0779
    TRIAL :  cpu time  530.1193: real time  530.1800
    CORREC:  cpu time    0.0021: real time    0.0023
    CHARGE:  cpu time    1.6518: real time    1.6519
    --------------------------------------------
      LOOP:  cpu time  535.1726: real time  535.2338

 eigenvalue-minimisations  :     0
 total energy-change (2. order) :-0.5537303E-02  (-0.4722538E-02)
 number of electron     246.0000020 magnetization       2.0011281
 augmentation part       18.1878977 magnetization       1.5846658

 DIPCOR: dipole corrections for dipol
 direction  3 min pos     1,
 dipolmoment           0.000000      0.000000     -0.009572 electrons x Angstroem
 Tr[quadrupol]     -6626.547454

 energy correction for charged system         0.000000 eV
 dipol+quadrupol energy correction           -0.000003 eV
 added-field ion interaction         -0.000302 eV  (added to PSCEN)


 Free energy of the ion-electron system (eV)
  ---------------------------------------------------
  alpha Z        PSCENC =       104.83685735
  Ewald energy   TEWEN  =     39649.76163782
  -Hartree energ DENC   =    -49130.80756148
  -exchange      EXHF   =       569.18715020
  -V(xc)+E(xc)   XCENC  =       655.64107773
  PAW double counting   =     27416.43602427   -27621.16567687
  entropy T*S    EENTRO =        -0.00234796
  eigenvalues    EBANDS =     -3264.29438964
  atomic energy  EATOM  =     11031.56538257
  ---------------------------------------------------
  free energy    TOTEN  =      -588.84195308 eV

  energy without entropy =     -588.83960512  energy(sigma->0) =     -588.84077910
  exchange ACFDT corr.  =        -0.00089985  see jH, gK, PRB 81, 115126


--------------------------------------------------------------------------------------------------------




--------------------------------------- Iteration      1(  14)  ---------------------------------------


    POTLOK:  cpu time    1.3172: real time    1.3173
    SETDIJ:  cpu time    2.0744: real time    2.0745
    TRIAL :  cpu time  530.1814: real time  530.2380
    CORREC:  cpu time    0.0021: real time    0.0024
    CHARGE:  cpu time    1.6497: real time    1.6497
    --------------------------------------------
      LOOP:  cpu time  535.2274: real time  535.2846

 eigenvalue-minimisations  :     0
 total energy-change (2. order) :-0.4387846E-02  (-0.3793068E-02)
 number of electron     246.0000020 magnetization       2.0009720
 augmentation part       18.1889691 magnetization       1.5830849

 DIPCOR: dipole corrections for dipol
 direction  3 min pos     1,
 dipolmoment           0.000000      0.000000     -0.009771 electrons x Angstroem
 Tr[quadrupol]     -6626.550766

 energy correction for charged system         0.000000 eV
 dipol+quadrupol energy correction           -0.000003 eV
 added-field ion interaction         -0.000309 eV  (added to PSCEN)


 Free energy of the ion-electron system (eV)
  ---------------------------------------------------
  alpha Z        PSCENC =       104.83685094
  Ewald energy   TEWEN  =     39649.76163782
  -Hartree energ DENC   =    -49131.08409562
  -exchange      EXHF   =       569.20993997
  -V(xc)+E(xc)   XCENC  =       655.64842506
  PAW double counting   =     27416.48310702   -27621.25440937
  entropy T*S    EENTRO =        -0.00226609
  eigenvalues    EBANDS =     -3264.01083134
  atomic energy  EATOM  =     11031.56538257
  ---------------------------------------------------
  free energy    TOTEN  =      -588.84634093 eV

  energy without entropy =     -588.84407483  energy(sigma->0) =     -588.84520788
  exchange ACFDT corr.  =        -0.00085681  see jH, gK, PRB 81, 115126


--------------------------------------------------------------------------------------------------------




--------------------------------------- Iteration      1(  15)  ---------------------------------------


    POTLOK:  cpu time    1.3179: real time    1.3179
    SETDIJ:  cpu time    2.0764: real time    2.0766
    TRIAL :  cpu time  530.1890: real time  530.2456
    CORREC:  cpu time    0.0020: real time    0.0022
    CHARGE:  cpu time    1.6502: real time    1.6504
    --------------------------------------------
      LOOP:  cpu time  535.2389: real time  535.5108

 eigenvalue-minimisations  :     0
 total energy-change (2. order) :-0.3558895E-02  (-0.3129862E-02)
 number of electron     246.0000020 magnetization       2.0008535
 augmentation part       18.1896217 magnetization       1.5815567

 DIPCOR: dipole corrections for dipol
 direction  3 min pos     1,
 dipolmoment           0.000000      0.000000     -0.009978 electrons x Angstroem
 Tr[quadrupol]     -6626.553812

 energy correction for charged system         0.000000 eV
 dipol+quadrupol energy correction           -0.000003 eV
 added-field ion interaction         -0.000315 eV  (added to PSCEN)


 Free energy of the ion-electron system (eV)
  ---------------------------------------------------
  alpha Z        PSCENC =       104.83684428
  Ewald energy   TEWEN  =     39649.76163782
  -Hartree energ DENC   =    -49131.32043341
  -exchange      EXHF   =       569.22954759
  -V(xc)+E(xc)   XCENC  =       655.65402903
  PAW double counting   =     27417.13155663   -27621.92661837
  entropy T*S    EENTRO =        -0.00220336
  eigenvalues    EBANDS =     -3263.77957987
  atomic energy  EATOM  =     11031.56538257
  ---------------------------------------------------
  free energy    TOTEN  =      -588.84989982 eV

  energy without entropy =     -588.84769646  energy(sigma->0) =     -588.84879814
  exchange ACFDT corr.  =        -0.00082427  see jH, gK, PRB 81, 115126


--------------------------------------------------------------------------------------------------------




--------------------------------------- Iteration      1(  16)  ---------------------------------------


    POTLOK:  cpu time    1.3190: real time    1.3192
    SETDIJ:  cpu time    2.0779: real time    2.0781
    TRIAL :  cpu time  530.3024: real time  530.3961
    CORREC:  cpu time    0.0021: real time    0.0024
    CHARGE:  cpu time    1.6494: real time    1.6497
    --------------------------------------------
      LOOP:  cpu time  535.3533: real time  535.8748

 eigenvalue-minimisations  :     0
 total energy-change (2. order) :-0.2960084E-02  (-0.2636806E-02)
 number of electron     246.0000020 magnetization       2.0007650
 augmentation part       18.1899535 magnetization       1.5800946

 DIPCOR: dipole corrections for dipol
 direction  3 min pos     1,
 dipolmoment           0.000000      0.000000     -0.010108 electrons x Angstroem
 Tr[quadrupol]     -6626.556154

 energy correction for charged system         0.000000 eV
 dipol+quadrupol energy correction           -0.000003 eV
 added-field ion interaction         -0.000319 eV  (added to PSCEN)


 Free energy of the ion-electron system (eV)
  ---------------------------------------------------
  alpha Z        PSCENC =       104.83684011
  Ewald energy   TEWEN  =     39649.76163782
  -Hartree energ DENC   =    -49131.47993925
  -exchange      EXHF   =       569.24595824
  -V(xc)+E(xc)   XCENC  =       655.65739024
  PAW double counting   =     27418.18855112   -27622.98489398
  entropy T*S    EENTRO =        -0.00215547
  eigenvalues    EBANDS =     -3263.64158341
  atomic energy  EATOM  =     11031.56538257
  ---------------------------------------------------
  free energy    TOTEN  =      -588.85285990 eV

  energy without entropy =     -588.85070444  energy(sigma->0) =     -588.85178217
  exchange ACFDT corr.  =        -0.00079959  see jH, gK, PRB 81, 115126


--------------------------------------------------------------------------------------------------------




--------------------------------------- Iteration      1(  17)  ---------------------------------------


    POTLOK:  cpu time    1.3209: real time    1.3210
    SETDIJ:  cpu time    2.0787: real time    2.0789
    TRIAL :  cpu time  529.5021: real time  529.6016
    CORREC:  cpu time    0.0020: real time    0.0023
    CHARGE:  cpu time    1.6518: real time    1.6522
    --------------------------------------------
      LOOP:  cpu time  534.5582: real time  534.6585

 eigenvalue-minimisations  :     0
 total energy-change (2. order) :-0.2510635E-02  (-0.2262524E-02)
 number of electron     246.0000020 magnetization       2.0006993
 augmentation part       18.1902489 magnetization       1.5787630

 DIPCOR: dipole corrections for dipol
 direction  3 min pos     1,
 dipolmoment           0.000000      0.000000     -0.010162 electrons x Angstroem
 Tr[quadrupol]     -6626.557888

 energy correction for charged system         0.000000 eV
 dipol+quadrupol energy correction           -0.000003 eV
 added-field ion interaction         -0.000321 eV  (added to PSCEN)


 Free energy of the ion-electron system (eV)
  ---------------------------------------------------
  alpha Z        PSCENC =       104.83683837
  Ewald energy   TEWEN  =     39649.76163782
  -Hartree energ DENC   =    -49131.59274653
  -exchange      EXHF   =       569.26014135
  -V(xc)+E(xc)   XCENC  =       655.65961308
  PAW double counting   =     27419.39849041   -27624.18925433
  entropy T*S    EENTRO =        -0.00211894
  eigenvalues    EBANDS =     -3263.55331780
  atomic energy  EATOM  =     11031.56538257
  ---------------------------------------------------
  free energy    TOTEN  =      -588.85537054 eV

  energy without entropy =     -588.85325160  energy(sigma->0) =     -588.85431107
  exchange ACFDT corr.  =        -0.00078096  see jH, gK, PRB 81, 115126


--------------------------------------------------------------------------------------------------------




--------------------------------------- Iteration      1(  18)  ---------------------------------------


    POTLOK:  cpu time    1.3185: real time    1.3189
    SETDIJ:  cpu time    2.0793: real time    2.0796
    TRIAL :  cpu time  529.9655: real time  530.0776
    CORREC:  cpu time    0.0019: real time    0.0022
    CHARGE:  cpu time    1.6511: real time    1.6513
    --------------------------------------------
      LOOP:  cpu time  535.0194: real time  535.1459

 eigenvalue-minimisations  :     0
 total energy-change (2. order) :-0.2167960E-02  (-0.1974712E-02)
 number of electron     246.0000020 magnetization       2.0006504
 augmentation part       18.1906025 magnetization       1.5776060

 DIPCOR: dipole corrections for dipol
 direction  3 min pos     1,
 dipolmoment           0.000000      0.000000     -0.010222 electrons x Angstroem
 Tr[quadrupol]     -6626.559365

 energy correction for charged system         0.000000 eV
 dipol+quadrupol energy correction           -0.000003 eV
 added-field ion interaction         -0.000323 eV  (added to PSCEN)


 Free energy of the ion-electron system (eV)
  ---------------------------------------------------
  alpha Z        PSCENC =       104.83683645
  Ewald energy   TEWEN  =     39649.76163782
  -Hartree energ DENC   =    -49131.70708874
  -exchange      EXHF   =       569.27313418
  -V(xc)+E(xc)   XCENC  =       655.66204099
  PAW double counting   =     27420.58445432   -27625.37854471
  entropy T*S    EENTRO =        -0.00209096
  eigenvalues    EBANDS =     -3263.45327243
  atomic energy  EATOM  =     11031.56538257
  ---------------------------------------------------
  free energy    TOTEN  =      -588.85753850 eV

[...]
  E(xc)    -734.41850  -733.89499  -748.37866    -0.12772    -0.07110    -0.00804
  Local  -99185.65696-99210.40448101455.57721   -97.35430   -40.35789     1.51097
  n-local  -127.27512  -124.81334  -123.13826    -3.52942     1.58023     0.11357
  augment    46.10503    46.26113    50.06927    -0.35378    -0.13658    -0.16178
  Kinetic  3626.94026  3577.26555  4119.93476    27.72302     2.87481     1.01038
  Fock     -384.71433  -385.71907  -362.27834    -0.30296     0.62817    -0.30973
  -------------------------------------------------------------------------------------
  Total     -30.18926   -69.82258    -0.58362    19.35954     0.05700    -0.03941
  in kB     -15.22517   -35.21321    -0.29434     9.76348     0.02875    -0.01988
  external pressure =      -16.91 kB  Pullay stress =        0.00 kB


 VOLUME and BASIS-vectors are now :
 -----------------------------------------------------------------------------
  energy-cutoff  :      500.00
  volume of cell :     3176.88
      direct lattice vectors                 reciprocal lattice vectors
    12.810000000  0.000000000  0.000000000     0.078064012  0.000000000  0.000000000
     0.000000000 12.400000000  0.000000000     0.000000000  0.080645161  0.000000000
     0.000000000  0.000000000 20.000000000     0.000000000  0.000000000  0.050000000

  length of vectors
    12.810000000 12.400000000 20.000000000     0.078064012  0.080645161  0.050000000


 FORCES acting on ions:
    Electron-Ion                     Ewald-Force                    Non-Local-Force
 -----------------------------------------------------------------------------------------------
   0.158E+01 0.973E+01 -.488E+01   -.195E+01 -.968E+01 0.488E+01   0.351E+00 -.124E-01 -.644E-02
   0.262E+01 0.857E+01 -.465E+01   -.271E+01 -.869E+01 0.466E+01   0.642E-01 0.142E+00 -.127E-01
   0.169E+01 -.124E+01 -.206E+01   -.181E+01 0.116E+01 0.205E+01   0.696E-01 0.369E-01 0.139E-01
   0.619E+01 0.113E+02 -.108E+02   -.634E+01 -.117E+02 0.108E+02   0.166E+00 0.353E+00 -.356E-01
   0.138E+02 0.186E+02 -.127E+02   -.144E+02 -.187E+02 0.127E+02   0.449E+00 0.289E+00 0.218E-01
   0.455E+01 0.525E+01 -.879E+01   -.474E+01 -.560E+01 0.882E+01   0.191E+00 0.330E+00 -.301E-01
   0.757E+01 0.561E+01 -.825E+01   -.799E+01 -.568E+01 0.822E+01   0.392E+00 0.397E-01 0.243E-01
   0.440E+02 0.111E+02 -.213E+02   -.475E+02 -.115E+02 0.215E+02   0.368E+01 0.172E+00 -.218E+00
   0.287E+02 0.147E+02 -.115E+02   -.306E+02 -.170E+02 0.120E+02   0.198E+01 0.238E+01 -.463E+00
   -.205E+00 -.590E+01 -.434E+01   0.144E+00 0.604E+01 0.426E+01   0.572E-01 -.222E+00 0.757E-01
   0.147E+02 0.296E+01 -.868E+01   -.152E+02 -.332E+01 0.870E+01   0.438E+00 0.340E+00 -.343E-01
   -.226E+01 -.369E+02 0.501E+01   0.993E+00 0.399E+02 -.507E+01   0.120E+01 -.312E+01 0.192E-01
   -.546E+01 -.521E-01 0.237E+01   0.546E+01 0.397E+00 -.239E+01   -.166E-01 -.222E+00 0.382E-01
   0.890E+00 -.130E+02 -.100E+01   -.798E+00 0.134E+02 0.103E+01   0.241E-01 -.344E+00 -.294E-01
   0.268E+02 0.899E+01 0.690E+01   -.293E+02 -.881E+01 -.683E+01   0.252E+01 -.382E-02 -.697E-01
   0.403E+01 0.422E+01 0.254E+01   -.434E+01 -.464E+01 -.251E+01   0.303E+00 0.358E+00 -.269E-01
   -.171E+01 0.461E+01 0.207E+01   0.174E+01 -.451E+01 -.206E+01   -.390E-01 -.298E-01 0.296E-02
   -.171E+01 -.751E+01 0.339E+01   0.143E+01 0.753E+01 -.340E+01   0.232E+00 -.547E-01 0.249E-01
   0.633E+01 -.428E+01 -.103E+01   -.644E+01 0.442E+01 0.991E+00   0.126E+00 -.128E+00 0.382E-01
   -.590E+01 0.216E+01 -.233E+01   0.587E+01 -.177E+01 0.229E+01   0.116E+00 -.321E+00 0.259E-01
   -.483E+01 0.178E+02 -.101E+02   0.487E+01 -.185E+02 0.101E+02   -.260E-01 0.467E+00 -.490E-01
   0.375E+01 0.402E+01 -.546E+01   -.336E+01 -.393E+01 0.544E+01   -.432E+00 -.136E-01 -.197E-02
   -.110E+01 0.579E+01 0.515E+01   0.104E+01 -.583E+01 -.515E+01   -.207E-01 -.330E-01 -.618E-02
   -.140E+02 0.238E+02 0.141E+02   0.145E+02 -.235E+02 -.141E+02   -.447E+00 -.336E+00 0.127E-01
   -.185E+02 0.419E+02 -.436E+01   0.208E+02 -.447E+02 0.394E+01   -.257E+01 0.311E+01 0.418E+00
   -.335E+02 0.570E+02 0.311E+02   0.349E+02 -.592E+02 -.299E+02   -.173E+01 0.237E+01 -.127E+01
   0.329E+02 -.358E+02 -.396E+01   -.351E+02 0.390E+02 0.390E+01   0.252E+01 -.328E+01 0.473E-01
   -.438E+01 -.221E+01 -.319E+01   0.469E+01 0.246E+01 0.321E+01   -.330E+00 -.245E+00 -.279E-01
   -.116E+02 -.245E+02 0.191E+01   0.119E+02 0.267E+02 -.191E+01   -.688E+00 -.227E+01 -.162E-01
   0.750E+01 -.145E+02 -.436E+01   -.767E+01 0.152E+02 0.442E+01   0.119E+00 -.725E+00 -.669E-01
   -.148E+01 0.226E+01 0.109E+01   0.148E+01 -.222E+01 -.108E+01   -.872E-02 -.230E-01 0.647E-03
   -.598E+01 0.576E+01 0.674E+01   0.605E+01 -.570E+01 -.681E+01   -.207E-01 -.931E-01 0.907E-01
   0.110E+00 -.651E+01 0.299E+01   0.108E+00 0.694E+01 -.299E+01   -.155E+00 -.398E+00 0.628E-02
   0.188E+01 -.111E+01 -.258E+01   -.200E+01 0.103E+01 0.257E+01   0.109E+00 0.650E-01 0.158E-01
   -.851E+00 0.104E+02 -.555E+01   0.716E+00 -.105E+02 0.560E+01   0.883E-01 0.118E+00 -.561E-01
   -.144E+02 0.241E+02 0.169E+01   0.142E+02 -.242E+02 -.185E+01   0.209E+00 0.112E+00 0.197E+00
   -.209E+01 0.722E+01 -.353E+00   0.191E+01 -.707E+01 0.389E+00   0.188E+00 -.156E+00 -.330E-01
   -.675E+00 0.638E+01 -.556E+01   0.691E+00 -.671E+01 0.546E+01   -.143E-01 0.352E+00 0.954E-01
   -.153E+02 0.141E+02 -.803E+01   0.156E+02 -.145E+02 0.796E+01   -.127E+00 0.324E+00 0.657E-01
   -.253E+02 0.495E+02 -.124E+02   0.266E+02 -.531E+02 0.120E+02   -.140E+01 0.359E+01 0.379E+00
   -.126E+02 0.892E+00 -.840E+01   0.127E+02 -.995E+00 0.851E+01   -.824E-01 0.210E-01 -.112E+00
   -.249E+02 -.769E+01 -.441E+01   0.253E+02 0.818E+01 0.439E+01   -.525E+00 -.374E+00 0.405E-01
   -.460E+02 -.295E+02 -.132E+02   0.498E+02 0.299E+02 0.131E+02   -.381E+01 -.303E+00 -.101E-01
   -.463E+02 -.421E+02 -.169E+02   0.486E+02 0.445E+02 0.167E+02   -.216E+01 -.256E+01 0.230E+00
   -.117E+02 -.108E+02 0.789E+00   0.119E+02 0.111E+02 -.804E+00   -.235E+00 -.262E+00 0.226E-01
   -.782E+01 -.614E+01 -.346E+00   0.836E+01 0.623E+01 0.351E+00   -.504E+00 -.555E-01 0.127E-02
   -.438E+01 -.125E+02 -.144E+01   0.456E+01 0.130E+02 0.140E+01   -.157E+00 -.510E+00 0.348E-01
   -.139E+02 -.210E+02 -.543E+01   0.146E+02 0.215E+02 0.541E+01   -.668E+00 -.437E+00 -.238E-02
   -.297E+01 -.782E+01 0.203E+01   0.299E+01 0.796E+01 -.203E+01   -.148E-01 -.161E+00 0.131E-01
   -.315E+02 -.512E+02 0.103E+02   0.513E+02 0.516E+02 -.111E+02   -.192E+02 -.231E+00 0.908E+00
   -.150E+02 0.125E+02 -.380E+02   0.241E+02 0.158E+01 0.394E+02   -.866E+01 -.138E+02 -.134E+01
   -.227E+02 0.464E+02 0.203E+03   0.157E+02 -.371E+02 -.212E+03   0.735E+01 -.903E+01 0.863E+01
   -.361E+02 0.866E+02 0.165E+02   0.511E+02 -.112E+03 -.173E+02   -.139E+02 0.241E+02 0.802E+00
   0.446E+02 -.424E+02 -.780E+01   -.540E+02 0.275E+02 0.712E+01   0.882E+01 0.142E+02 0.677E+00
   -.329E+02 0.370E+02 -.583E+02   0.124E+02 -.378E+02 0.601E+02   0.194E+02 0.807E+00 -.183E+01
   0.831E+02 -.113E+03 0.182E+03   -.853E+02 0.107E+03 -.179E+03   0.116E+01 0.612E+01 -.308E+01
   0.153E+03 -.881E+02 -.186E+03   -.148E+03 0.849E+02 0.184E+03   -.410E+01 0.296E+01 0.162E+01
 -----------------------------------------------------------------------------------------------
   0.104E+02 -.250E+02 -.638E+01   0.171E-12 0.455E-12 -.853E-13   -.974E+01 0.235E+02 0.578E+01
 
 
 POSITION                                       TOTAL-FORCE (eV/Angst)
 -----------------------------------------------------------------------------------
      2.83061     12.39792     10.02274        -0.002858      0.043542     -0.004093
      0.67248      1.25262     10.02875        -0.022423      0.041152     -0.007176
      1.40073      0.01123     10.01788        -0.048139     -0.049354      0.000289
      3.52129      1.23806     10.03640         0.021663     -0.052858     -0.019650
      2.79420      2.47564     10.04353        -0.070020      0.154360      0.014885
      0.67100      3.73358     10.04230         0.000846     -0.006999     -0.005912
      1.37004      2.48910     10.04094        -0.003641     -0.039818     -0.000957
      3.49275      3.69923     10.03445         0.309193     -0.261828      0.005102
      2.80627      4.96505     10.00712         0.239316      0.298324     -0.021108
      0.71440      6.22023     10.02557        -0.001677     -0.101989     -0.005854
      1.39406      4.96498     10.03104        -0.056181     -0.003509     -0.014503
      2.90427      7.38407      9.96166        -0.012001     -0.362763     -0.039282
      0.74585      8.69092     10.00073        -0.023051      0.122886      0.020522
      1.46844      7.44253      9.99974         0.117543      0.034088     -0.005382
      3.63821      8.65864      9.96251         0.169878      0.187667      0.000789
      2.87305      9.90041      9.98696         0.004836     -0.034169     -0.000572
      0.71096     11.17279     10.00334        -0.010760      0.082516      0.014830
      1.44222      9.92604      9.99327        -0.032216     -0.046185      0.018028
      3.55966     11.15194     10.00476         0.029235      0.006328      0.003759
      7.09338      0.02490     10.00115         0.083845      0.056410     -0.015879
      4.94576      1.25607     10.01995         0.012035     -0.203167     -0.015385
      5.67207      0.01372     10.01328        -0.053794      0.071713     -0.022437
      7.77464      1.29134      9.96212        -0.080411     -0.079153     -0.005365
      7.04929      2.54541      9.91135         0.116307     -0.026453     -0.017496
      5.61709      2.52981      9.97759        -0.354688      0.485511      0.019632
      7.75296      3.82176      9.82288        -0.423335      0.374481     -0.066467
      7.13754      9.88843     10.02826         0.427195     -0.227378     -0.010156
      4.98523     11.15270     10.00831        -0.046696     -0.007893     -0.011322
      5.66995      9.86903      9.99311        -0.418709     -0.279343     -0.011908
      7.80582     11.16827     10.02074        -0.033508      0.011535     -0.017238
     11.35827      0.03320     10.00600        -0.009519      0.016278      0.009010
      9.20549      1.30403      9.97200         0.046496     -0.032637      0.025903
      9.92642      0.05003      9.99576         0.059745      0.012882      0.010169
     12.05267      1.27459     10.01918        -0.004166     -0.022983      0.002814
     11.33564      2.52616     10.02274        -0.042534     -0.055496     -0.009925
      9.19375      3.82838      9.96538         0.091864     -0.010820      0.041324
      9.90076      2.56100      9.98978         0.023570     -0.022445      0.001289
     12.05468      3.75674     10.03665         0.004222      0.029801      0.006321
     11.36737      5.01256     10.04902         0.131793      0.002107      0.002293
      9.93662      5.06875     10.05473        -0.221728      0.240024     -0.005966
     12.10579      6.23833     10.04926        -0.008719     -0.080996     -0.010513
     11.41135      7.49105     10.04939        -0.153714      0.099881      0.026386
      9.25457      8.73399     10.07281        -0.249579      0.071767     -0.038069
      9.99865      7.48266     10.09310         0.094187     -0.320059      0.034387
     12.12622      8.71526     10.02010         0.019507      0.002420      0.009370
     11.39909      9.95125     10.02101         0.012785      0.033951      0.005927
      9.23797     11.19917     10.01773         0.016322     -0.058448      0.003012
      9.96882      9.96169     10.04029        -0.012793     -0.022595     -0.014608
     12.08958     11.19300     10.00691         0.004123     -0.043941      0.011952
      3.54906      6.14558      9.93156        -1.015638      0.156667      0.132077
      4.87707      3.70271     10.00695        -0.316425     -0.946073     -0.083226
      7.02953      4.94056      9.56965         0.999675     -0.436564      0.322027
      5.00616      8.67879      9.95387        -0.217660      0.773827      0.059018
      7.86793      8.71369     10.05689         0.217767      0.556238      0.061024
      9.31441      6.29604     10.14077         0.588778      0.064786     -0.106496
      5.35864      5.48370      9.68766        -0.356450     -0.047770     -0.033044
      7.39435      6.79510     10.14254         0.460308     -0.147455     -0.242151
 -----------------------------------------------------------------------------------
    total drift:                               -0.000251      0.003490     -0.005852


--------------------------------------------------------------------------------------------------------



  FREE ENERGIE OF THE ION-ELECTRON SYSTEM (eV)
  ---------------------------------------------------
  free  energy   TOTEN  =      -588.88743190 eV

  energy  without entropy=     -588.88541031  energy(sigma->0) =     -588.88642111
 


--------------------------------------------------------------------------------------------------------


    POTLOK:  cpu time    3.3800: real time    3.3818


--------------------------------------------------------------------------------------------------------


 stress matrix after NEB project (eV)
    -30.18926     19.35903     -0.03941
     19.35954    -69.82258      0.05803
     -0.03901      0.05700     -0.58362
  FORCES: max atom, RMS     1.137383    0.360798
  FORCE total and by dimension    2.723966    1.015638
  Stress total and by dimension   80.848610   69.822577
 writing wavefunctions
     LOOP+:  cpu time48289.9268: real time48297.4488
    4ORBIT:  cpu time    0.0000: real time    0.0000
 


 total charge     
 
# of ion       s       p       d       tot
------------------------------------------
    1        0.862   1.771   0.000   2.634
    2        0.865   1.765   0.000   2.630
    3        0.864   1.771   0.000   2.636
    4        0.868   1.768   0.000   2.636
    5        0.868   1.784   0.000   2.653
    6        0.864   1.777   0.000   2.641
    7        0.867   1.780   0.000   2.647
    8        0.861   1.758   0.000   2.619
    9        0.858   1.741   0.000   2.599
   10        0.867   1.769   0.000   2.636
   11        0.870   1.781   0.000   2.651
   12        0.848   1.696   0.000   2.544
   13        0.864   1.766   0.000   2.630
   14        0.860   1.754   0.000   2.614
   15        0.849   1.708   0.000   2.557
   16        0.863   1.750   0.000   2.613
   17        0.864   1.762   0.000   2.626
   18        0.863   1.767   0.000   2.630
   19        0.867   1.751   0.000   2.618
   20        0.859   1.765   0.000   2.623
   21        0.863   1.760   0.000   2.623
   22        0.862   1.763   0.000   2.625
   23        0.861   1.737   0.000   2.598
   24        0.855   1.752   0.000   2.607
   25        0.856   1.712   0.000   2.568
   26        0.857   1.699   0.000   2.556
   27        0.851   1.699   0.000   2.551
   28        0.862   1.754   0.000   2.616
   29        0.852   1.714   0.000   2.565
   30        0.860   1.749   0.000   2.609
   31        0.863   1.766   0.000   2.629
   32        0.860   1.752   0.000   2.612
   33        0.861   1.757   0.000   2.618
   34        0.864   1.762   0.000   2.626
   35        0.862   1.758   0.000   2.620
   36        0.850   1.753   0.000   2.603
   37        0.860   1.736   0.000   2.596
   38        0.866   1.769   0.000   2.635
   39        0.865   1.768   0.000   2.633
   40        0.855   1.713   0.000   2.568
   41        0.867   1.770   0.000   2.636
   42        0.869   1.790   0.000   2.659
   43        0.856   1.734   0.000   2.591
   44        0.859   1.749   0.000   2.608
   45        0.864   1.774   0.000   2.638
   46        0.864   1.772   0.000   2.636
   47        0.866   1.754   0.000   2.620
   48        0.865   1.769   0.000   2.635
   49        0.865   1.763   0.000   2.628
   50        1.223   2.656   0.000   3.879
   51        1.225   2.674   0.000   3.899
   52        1.245   2.574   0.000   3.819
   53        1.247   2.610   0.000   3.857
   54        1.219   2.658   0.000   3.877
   55        1.228   2.688   0.000   3.916
   56        0.448   0.585   6.375   7.407
   57        0.511   0.493   9.853  10.857
--------------------------------------------------
tot         50.559 102.868  16.228 169.655
 


 magnetization (x)
 
# of ion       s       p       d       tot
------------------------------------------
    1        0.000   0.001   0.000   0.001
    2        0.000   0.000   0.000   0.000
    3       -0.000  -0.001   0.000  -0.001
    4        0.000  -0.000   0.000  -0.000
    5        0.000   0.000   0.000   0.001
    6        0.000   0.003   0.000   0.003
    7       -0.000  -0.002   0.000  -0.002
    8        0.001  -0.001   0.000   0.000
    9        0.002   0.006   0.000   0.008
   10        0.000   0.000   0.000   0.000
   11       -0.000  -0.001   0.000  -0.002
   12        0.000   0.003   0.000   0.004
   13        0.000   0.001   0.000   0.002
   14       -0.000  -0.000   0.000  -0.000
   15       -0.000  -0.002   0.000  -0.002
   16        0.000   0.000   0.000   0.000
   17        0.000   0.001   0.000   0.001
   18       -0.000  -0.001   0.000  -0.002
   19        0.000   0.000   0.000   0.000
   20       -0.000  -0.000   0.000  -0.000
   21       -0.001  -0.003   0.000  -0.004
   22        0.000   0.002   0.000   0.002
   23       -0.000  -0.002   0.000  -0.002
   24       -0.001  -0.005   0.000  -0.006
   25        0.000   0.002   0.000   0.003
   26        0.002   0.008   0.000   0.010
   27       -0.000  -0.001   0.000  -0.001
   28       -0.000  -0.000   0.000  -0.001
   29        0.000   0.000   0.000   0.001
   30       -0.000  -0.000   0.000  -0.000
   31        0.000   0.002   0.000   0.003
   32        0.000   0.002   0.000   0.002
   33       -0.000  -0.000   0.000  -0.000
   34       -0.000  -0.001   0.000  -0.001
   35        0.000   0.001   0.000   0.001
   36       -0.002  -0.002   0.000  -0.004
   37       -0.000  -0.001   0.000  -0.001
   38       -0.000  -0.000   0.000  -0.000
   39       -0.000   0.000   0.000   0.000
   40       -0.000  -0.000   0.000  -0.000
   41       -0.000  -0.001   0.000  -0.001
   42        0.000   0.001   0.000   0.001
   43        0.000   0.002   0.000   0.002
   44       -0.000   0.000   0.000  -0.000
   45       -0.000  -0.000   0.000  -0.000
   46        0.000   0.001   0.000   0.001
   47        0.000   0.001   0.000   0.001
   48       -0.000  -0.001   0.000  -0.002
   49       -0.000  -0.001   0.000  -0.001
   50       -0.004  -0.022   0.000  -0.026
   51       -0.008  -0.035   0.000  -0.042
   52       -0.010  -0.154   0.000  -0.165
   53        0.001   0.004   0.000   0.004
   54       -0.000   0.003   0.000   0.002
   55       -0.000   0.002   0.000   0.001
   56        0.015   0.023   2.104   2.142
   57        0.005  -0.003  -0.013  -0.011
--------------------------------------------------
tot         -0.001  -0.172   2.091   1.918
 

 total amount of memory used by VASP MPI-rank0   175825. kBytes
=======================================================================

   base      :      30000. kBytes
   nonl-proj :       5277. kBytes
   fftplans  :      13453. kBytes
   grid      :      34560. kBytes
   one-center:         62. kBytes
   HF        :         23. kBytes
   nonlr-proj:      15086. kBytes
   wavefun   :      77364. kBytes
 
  
  
 General timing and accounting informations for this job:
 ========================================================
  
                  Total CPU time used (sec):    48341.609
                            User time (sec):    48295.999
                          System time (sec):       45.611
                         Elapsed time (sec):    48351.605
  
                   Maximum memory used (kb):      417032.
                   Average memory used (kb):           0.
  
                          Minor page faults:       442232
                          Major page faults:            1
                 Voluntary context switches:         1390
