 vasp.5.4.4.18Apr17-6-g9f103f2a35 (build Feb 25 2019 10:51:38) complex          
  
 executed on             LinuxIFC date 2021.06.16  01:37:49
 running on   48 total cores
 distrk:  each k-point on   16 cores,    3 groups
 distr:  one band on NCORES_PER_BAND=  16 cores,    1 groups


--------------------------------------------------------------------------------------------------------


 INCAR:
 POTCAR:    PAW_PBE C 08Apr2002                   
 POTCAR:    PAW_PBE N 08Apr2002                   
 POTCAR:    PAW_PBE Fe 06Sep2000                  
 POTCAR:    PAW_PBE Ti 08Apr2002                  

 ----------------------------------------------------------------------------- 
|                                                                             |
|           W    W    AA    RRRRR   N    N  II  N    N   GGGG   !!!           |
|           W    W   A  A   R    R  NN   N  II  NN   N  G    G  !!!           |
|           W    W  A    A  R    R  N N  N  II  N N  N  G       !!!           |
|           W WW W  AAAAAA  RRRRR   N  N N  II  N  N N  G  GGG   !            |
|           WW  WW  A    A  R   R   N   NN  II  N   NN  G    G                |
|           W    W  A    A  R    R  N    N  II  N    N   GGGG   !!!           |
|                                                                             |
|      For optimal performance we recommend to set                            |
|        NCORE= 4 - approx SQRT( number of cores)                             |
|      NCORE specifies how many cores store one orbital (NPAR=cpu/NCORE).     |
|      This setting can  greatly improve the performance of VASP for DFT.     |
|      The default,   NCORE=1            might be grossly inefficient         |
|      on modern multi-core architectures or massively parallel machines.     |
|      Do your own testing !!!!                                               |
|      Unfortunately you need to use the default for GW and RPA calculations. |
|      (for HF NCORE is supported but not extensively tested yet)             |
|                                                                             |
 ----------------------------------------------------------------------------- 


 ----------------------------------------------------------------------------- 
|                                                                             |
|           W    W    AA    RRRRR   N    N  II  N    N   GGGG   !!!           |
|           W    W   A  A   R    R  NN   N  II  NN   N  G    G  !!!           |
|           W    W  A    A  R    R  N N  N  II  N N  N  G       !!!           |
|           W WW W  AAAAAA  RRRRR   N  N N  II  N  N N  G  GGG   !            |
|           WW  WW  A    A  R   R   N   NN  II  N   NN  G    G                |
|           W    W  A    A  R    R  N    N  II  N    N   GGGG   !!!           |
|                                                                             |
|      You have enabled k-point parallelism (KPAR>1).                         |
|      This developmental code was originally  written by Paul Kent at ORNL,  |
|      and carefully double checked in Vienna.                                |
|      GW as well as linear response parallelism added by Martijn Marsman     |
|      and Georg Kresse.                                                      |
|      Carefully verify results versus KPAR=1.                                |
|      Report problems to Paul Kent and Vienna.                               |
|                                                                             |
 ----------------------------------------------------------------------------- 

 POTCAR:    PAW_PBE C 08Apr2002                   
   VRHFIN =C: s2p2                                                              
   LEXCH  = PE                                                                  
   EATOM  =   147.1560 eV,   10.8157 Ry                                         
                                                                                
   TITEL  = PAW_PBE C 08Apr2002                                                 
   LULTRA =        F    use ultrasoft PP ?                                      
   IUNSCR =        1    unscreen: 0-lin 1-nonlin 2-no                           
   RPACOR =    1.200    partial core radius                                     
   POMASS =   12.011; ZVAL   =    4.000    mass and valenz                      
   RCORE  =    1.500    outmost cutoff radius                                   
   RWIGS  =    1.630; RWIGS  =    0.863    wigner-seitz radius (au A)           
   ENMAX  =  400.000; ENMIN  =  300.000 eV                                      
   ICORE  =        2    local potential                                         
   LCOR   =        T    correct aug charges                                     
   LPAW   =        T    paw PP                                                  
   EAUG   =  644.873                                                            
   DEXC   =    0.000                                                            
   RMAX   =    1.529    core radius for proj-oper                               
   RAUG   =    1.300    factor for augmentation sphere                          
   RDEP   =    1.501    radius for radial grids                                 
   RDEPT  =    1.300    core radius for aug-charge                              
                                                                                
   Atomic configuration                                                         
    4 entries                                                                   
     n  l   j            E        occ.                                          
     1  0  0.50      -273.3789   2.0000                                         
     2  0  0.50       -13.7508   2.0000                                         
     2  1  0.50        -5.2854   2.0000                                         
     3  2  1.50        -5.4423   0.0000                                         
   Description                                                                  
     l       E           TYP  RCUT    TYP  RCUT                                 
     0    -13.7508458     23  1.200                                             
     0     -8.2022199     23  1.200                                             
     1     -5.2854383     23  1.500                                             
     1     34.0145650     23  1.500                                             
     2     -5.4423304      7  1.500                                             
  local pseudopotential read in
  partial core-charges read in
  partial kinetic energy density read in
  atomic valenz-charges read in
  non local Contribution for L=           0  read in
    real space projection operators read in
  non local Contribution for L=           0  read in
    real space projection operators read in
  non local Contribution for L=           1  read in
    real space projection operators read in
  non local Contribution for L=           1  read in
    real space projection operators read in
    PAW grid and wavefunctions read in
 
   number of l-projection  operators is LMAX  =           4
   number of lm-projection operators is LMMAX =           8
 
 POTCAR:    PAW_PBE N 08Apr2002                   
   VRHFIN =N: s2p3                                                              
   LEXCH  = PE                                                                  
   EATOM  =   264.5486 eV,   19.4438 Ry                                         
                                                                                
   TITEL  = PAW_PBE N 08Apr2002                                                 
   LULTRA =        F    use ultrasoft PP ?                                      
   IUNSCR =        1    unscreen: 0-lin 1-nonlin 2-no                           
   RPACOR =    1.200    partial core radius                                     
   POMASS =   14.001; ZVAL   =    5.000    mass and valenz                      
   RCORE  =    1.500    outmost cutoff radius                                   
   RWIGS  =    1.400; RWIGS  =    0.741    wigner-seitz radius (au A)           
   ENMAX  =  400.000; ENMIN  =  300.000 eV                                      
   ICORE  =        2    local potential                                         
   LCOR   =        T    correct aug charges                                     
   LPAW   =        T    paw PP                                                  
   EAUG   =  627.112                                                            
   DEXC   =    0.000                                                            
   RMAX   =    1.529    core radius for proj-oper                               
   RAUG   =    1.300    factor for augmentation sphere                          
   RDEP   =    1.514    radius for radial grids                                 
   RDEPT  =    1.338    core radius for aug-charge                              
                                                                                
   Atomic configuration                                                         
    4 entries                                                                   
     n  l   j            E        occ.                                          
     1  0  0.50      -384.7179   2.0000                                         
     2  0  0.50       -18.5828   2.0000                                         
     2  1  0.50        -7.0898   3.0000                                         
     3  2  1.50        -6.8029   0.0000                                         
   Description                                                                  
     l       E           TYP  RCUT    TYP  RCUT                                 
     0    -18.5828119     23  1.200                                             
     0    -13.5018863     23  1.200                                             
     1     -7.0897853     23  1.500                                             
     1      9.5240782     23  1.500                                             
     2     -6.8029130      7  1.500                                             
  local pseudopotential read in
  partial core-charges read in
  partial kinetic energy density read in
  atomic valenz-charges read in
  non local Contribution for L=           0  read in
    real space projection operators read in
  non local Contribution for L=           0  read in
    real space projection operators read in
  non local Contribution for L=           1  read in
    real space projection operators read in
  non local Contribution for L=           1  read in
    real space projection operators read in
    PAW grid and wavefunctions read in
 
   number of l-projection  operators is LMAX  =           4
   number of lm-projection operators is LMMAX =           8
 
 POTCAR:    PAW_PBE Fe 06Sep2000                  
   VRHFIN =Fe:  d7 s1                                                           
   LEXCH  = PE                                                                  
   EATOM  =   594.3153 eV,   43.6809 Ry                                         
                                                                                
   TITEL  = PAW_PBE Fe 06Sep2000                                                
   LULTRA =        F    use ultrasoft PP ?                                      
   IUNSCR =        1    unscreen: 0-lin 1-nonlin 2-no                           
   RPACOR =    2.000    partial core radius                                     
   POMASS =   55.847; ZVAL   =    8.000    mass and valenz                      
   RCORE  =    2.300    outmost cutoff radius                                   
   RWIGS  =    2.460; RWIGS  =    1.302    wigner-seitz radius (au A)           
   ENMAX  =  267.882; ENMIN  =  200.911 eV                                      
   RCLOC  =    1.701    cutoff for local pot                                    
   LCOR   =        T    correct aug charges                                     
   LPAW   =        T    paw PP                                                  
   EAUG   =  511.368                                                            
   DEXC   =    0.000                                                            
   RMAX   =    2.356    core radius for proj-oper                               
   RAUG   =    1.300    factor for augmentation sphere                          
   RDEP   =    2.442    radius for radial grids                                 
   RDEPT  =    1.890    core radius for aug-charge                              
                                                                                
   Atomic configuration                                                         
    9 entries                                                                   
     n  l   j            E        occ.                                          
     1  0  0.50     -6993.8440   2.0000                                         
     2  0  0.50      -814.6047   2.0000                                         
     2  1  1.50      -693.3689   6.0000                                         
     3  0  0.50       -89.4732   2.0000                                         
     3  1  1.50       -55.6373   6.0000                                         
     3  2  2.50        -3.8151   7.0000                                         
     4  0  0.50        -4.2551   1.0000                                         
     4  1  1.50        -3.4015   0.0000                                         
     4  3  2.50        -1.3606   0.0000                                         
   Description                                                                  
     l       E           TYP  RCUT    TYP  RCUT                                 
     2     -3.8151135     23  2.300                                             
     2     -5.1756961     23  2.300                                             
     0     -4.2550963     23  2.300                                             
     0      7.2035603     23  2.300                                             
     1     -2.7211652     23  2.300                                             
     1     18.4316424     23  2.300                                             
  local pseudopotential read in
  partial core-charges read in
  partial kinetic energy density read in
  atomic valenz-charges read in
  non local Contribution for L=           2  read in
    real space projection operators read in
  non local Contribution for L=           2  read in
    real space projection operators read in
  non local Contribution for L=           0  read in
    real space projection operators read in
  non local Contribution for L=           0  read in
    real space projection operators read in
  non local Contribution for L=           1  read in
    real space projection operators read in
  non local Contribution for L=           1  read in
    real space projection operators read in
    PAW grid and wavefunctions read in
 
   number of l-projection  operators is LMAX  =           6
   number of lm-projection operators is LMMAX =          18
 
 POTCAR:    PAW_PBE Ti 08Apr2002                  
   VRHFIN =Ti: d3 s1                                                            
   LEXCH  = PE                                                                  
   EATOM  =    94.7928 eV,    6.9671 Ry                                         
                                                                                
   TITEL  = PAW_PBE Ti 08Apr2002                                                
   LULTRA =        F    use ultrasoft PP ?                                      
   IUNSCR =        1    unscreen: 0-lin 1-nonlin 2-no                           
   RPACOR =    2.200    partial core radius                                     
   POMASS =   47.880; ZVAL   =    4.000    mass and valenz                      
   RCORE  =    2.800    outmost cutoff radius                                   
   RWIGS  =    2.500; RWIGS  =    1.323    wigner-seitz radius (au A)           
   ENMAX  =  178.330; ENMIN  =  133.747 eV                                      
   RCLOC  =    2.215    cutoff for local pot                                    
   LCOR   =        T    correct aug charges                                     
   LPAW   =        T    paw PP                                                  
   EAUG   =  328.883                                                            
   DEXC   =    0.000                                                            
   RMAX   =    2.868    core radius for proj-oper                               
   RAUG   =    1.300    factor for augmentation sphere                          
   RDEP   =    2.885    radius for radial grids                                 
   RDEPT  =    2.320    core radius for aug-charge                              
                                                                                
   Atomic configuration                                                         
    9 entries                                                                   
     n  l   j            E        occ.                                          
     1  0  0.50     -4865.3608   2.0000                                         
     2  0  0.50      -533.1367   2.0000                                         
     2  1  1.50      -440.5031   6.0000                                         
     3  0  0.50       -59.3186   2.0000                                         
     3  1  1.50       -35.7012   6.0000                                         
     3  2  2.50        -1.9157   3.0000                                         
     4  0  0.50        -3.7291   1.0000                                         
     4  1  1.50        -4.0817   0.0000                                         
     4  3  2.50        -1.3606   0.0000                                         
   Description                                                                  
     l       E           TYP  RCUT    TYP  RCUT                                 
     2     -1.9156924     23  2.800                                             
     2     -0.4062961     23  2.800                                             
     0     -3.7290832     23  2.800                                             
     0     20.4087390     23  2.800                                             
     1     -5.4423304     23  2.800                                             
  local pseudopotential read in
  partial core-charges read in
  partial kinetic energy density read in
  atomic valenz-charges read in
  non local Contribution for L=           2  read in
    real space projection operators read in
  non local Contribution for L=           2  read in
    real space projection operators read in
  non local Contribution for L=           0  read in
    real space projection operators read in
  non local Contribution for L=           0  read in
    real space projection operators read in
  non local Contribution for L=           1  read in
    real space projection operators read in
    PAW grid and wavefunctions read in
 
   number of l-projection  operators is LMAX  =           5
   number of lm-projection operators is LMMAX =          15
 

 ----------------------------------------------------------------------------- 
|                                                                             |
|  ADVICE TO THIS USER RUNNING 'VASP/VAMP'   (HEAR YOUR MASTER'S VOICE ...):  |
|                                                                             |
|      You have a (more or less) 'large supercell' and for larger cells       |
|      it might be more efficient to use real space projection opertators     |
|      So try LREAL= Auto  in the INCAR   file.                               |
|      Mind:          For very  accurate calculation you might also keep the  |
|      reciprocal projection scheme          (i.e. LREAL=.FALSE.)             |
|                                                                             |
 ----------------------------------------------------------------------------- 

  PAW_PBE C 08Apr2002                   :
 energy of atom  1       EATOM= -147.1560
 kinetic energy error for atom=    0.0076 (will be added to EATOM!!)
  PAW_PBE N 08Apr2002                   :
 energy of atom  2       EATOM= -264.5486
 kinetic energy error for atom=    0.0138 (will be added to EATOM!!)
  PAW_PBE Fe 06Sep2000                  :
 energy of atom  3       EATOM= -594.3153
 kinetic energy error for atom=    0.0026 (will be added to EATOM!!)
  PAW_PBE Ti 08Apr2002                  :
 energy of atom  4       EATOM=  -94.7928
 kinetic energy error for atom=    0.0002 (will be added to EATOM!!)
 
 
 POSCAR:  C  N Fe Ti                             
  positions in cartesian coordinates
  No initial velocities read in
 exchange correlation table for  LEXCH =        8
   RHO(1)=    0.500       N(1)  =     2000
   RHO(2)=  100.500       N(2)  =     4000

 VTST: version 3.2, (02/03/18)

 CHAIN: initializing optimizer
 
 OPT: Using VASP Conjugate-Gradient optimizer
 CHAIN: Read ICHAIN            0
 
 POSCAR:  C  N Fe Ti                             
  positions in cartesian coordinates
  No initial velocities read in
 


--------------------------------------------------------------------------------------------------------


 ion  position               nearest neighbor table
   1  0.221  0.003  0.496-  19 1.43   3 1.43   4 1.43
   2  0.056  0.102  0.493-   3 1.42   7 1.44  38 1.44
   3  0.110  0.002  0.493-   2 1.42  17 1.43   1 1.43
   4  0.278  0.103  0.498-  21 1.43   1 1.43   5 1.44
   5  0.224  0.205  0.500-   4 1.44   7 1.44   8 1.45
   6  0.056  0.302  0.494-   7 1.43  11 1.43  42 1.43
   7  0.112  0.203  0.496-   6 1.43   2 1.44   5 1.44
   8  0.280  0.307  0.507-   5 1.45  25 1.46   9 1.47
   9  0.221  0.407  0.507-  55 1.38  11 1.43   8 1.47
  10  0.054  0.502  0.496-  46 1.42  14 1.43  11 1.43
  11  0.111  0.403  0.498-   6 1.43  10 1.43   9 1.43
  12  0.217  0.602  0.507-  55 1.38  14 1.42  15 1.44
  13  0.053  0.702  0.493-  18 1.42  50 1.43  14 1.43
  14  0.108  0.603  0.497-  12 1.42  10 1.43  13 1.43
  15  0.273  0.704  0.508-  58 1.38  16 1.42  12 1.44
  16  0.218  0.803  0.498-  15 1.42  18 1.43  19 1.43
  17  0.054  0.902  0.492-  18 1.43   3 1.43  54 1.43
  18  0.108  0.802  0.493-  13 1.42  16 1.43  17 1.43
  19  0.275  0.903  0.498-   1 1.43  32 1.43  16 1.43
  20  0.554  0.998  0.498-  22 1.43  23 1.43  34 1.44
  21  0.388  0.101  0.498-  26 1.43   4 1.43  22 1.44
  22  0.443  0.000  0.498-  32 1.42  20 1.43  21 1.44
  23  0.611  0.098  0.496-  24 1.43  36 1.43  20 1.43
  24  0.556  0.198  0.499-  27 1.43  23 1.43  26 1.43
  25  0.394  0.302  0.509-  56 1.38  26 1.43   8 1.46
  26  0.445  0.201  0.501-  21 1.43  24 1.43  25 1.43
  27  0.613  0.298  0.499-  24 1.43  40 1.43  28 1.43
  28  0.558  0.397  0.509-  56 1.38  27 1.43  29 1.44
  29  0.614  0.498  0.508-  57 1.39  44 1.42  28 1.44
  30  0.611  0.695  0.507-  57 1.39  48 1.43  31 1.46
  31  0.551  0.795  0.507-  34 1.46  33 1.46  30 1.46
  32  0.386  0.901  0.500-  22 1.42  19 1.43  33 1.43
  33  0.438  0.800  0.508-  58 1.39  32 1.43  31 1.46
  34  0.608  0.897  0.500-  20 1.44  52 1.44  31 1.46
  35  0.887  0.000  0.491-  54 1.43  38 1.43  37 1.44
  36  0.722  0.099  0.494-  37 1.43  41 1.43  23 1.43
  37  0.776  0.999  0.493-  36 1.43  52 1.44  35 1.44
  38  0.944  0.101  0.492-  39 1.43  35 1.43   2 1.44
  39  0.889  0.200  0.491-  38 1.43  42 1.43  41 1.43
  40  0.723  0.299  0.494-  45 1.42  41 1.43  27 1.43
  41  0.778  0.199  0.492-  40 1.43  36 1.43  39 1.43
  42  0.945  0.300  0.492-  43 1.43  39 1.43   6 1.43
  43  0.889  0.400  0.492-  46 1.43  45 1.43  42 1.43
  44  0.723  0.498  0.498-  29 1.42  45 1.43  49 1.43
  45  0.779  0.398  0.493-  40 1.42  43 1.43  44 1.43
  46  0.944  0.500  0.493-  10 1.42  43 1.43  47 1.43
  47  0.888  0.600  0.493-  49 1.42  50 1.43  46 1.43
  48  0.721  0.699  0.498-  53 1.43  30 1.43  49 1.43
  49  0.777  0.599  0.496-  47 1.42  44 1.43  48 1.43
  50  0.942  0.701  0.492-  47 1.43  13 1.43  51 1.43
  51  0.887  0.800  0.492-  50 1.43  54 1.43  53 1.43
  52  0.719  0.898  0.496-  53 1.43  37 1.44  34 1.44
  53  0.776  0.799  0.494-  48 1.43  52 1.43  51 1.43
  54  0.943  0.901  0.491-  35 1.43  51 1.43  17 1.43
  55  0.268  0.506  0.518-  12 1.38   9 1.38  59 1.95
  56  0.452  0.395  0.520-  28 1.38  25 1.38  59 1.95
  57  0.564  0.595  0.519-  29 1.39  30 1.39  60 2.01
  58  0.379  0.708  0.519-  15 1.38  33 1.39  60 2.01
  59  0.380  0.488  0.584-  60 1.89  56 1.95  55 1.95
  60  0.454  0.621  0.588-  59 1.89  57 2.01  58 2.01
 
  LATTYP: Found a triclinic cell.
 ALAT       =    12.3605000000
 B/A-ratio  =     1.6122486954
 C/A-ratio  =     1.0435904696
 COS(alpha) =     0.0004014257
 COS(beta)  =     0.0101017939
 COS(gamma) =     0.0146968885
  
  Lattice vectors:
  
 A1 = (  -0.1248632234,  12.3598693126,   0.0000000000)
 A2 = (  -0.0079996920,   0.2928166629, -19.9260470151)
 A3 = ( -12.8993000000,   0.0000000000,   0.0000000000)


Analysis of symmetry for initial positions (statically):
=====================================================================
 Subroutine PRICEL returns:
 Original cell was already a primitive cell.
 

 Routine SETGRP: Setting up the symmetry group for a 
 triclinic supercell.


 Subroutine GETGRP returns: Found  1 space group operations
 (whereof  1 operations were pure point group operations)
 out of a pool of  2 trial point group operations.


The static configuration has the point symmetry C_1 .


Analysis of symmetry for dynamics (positions and initial velocities):
=====================================================================
 Subroutine PRICEL returns:
 Original cell was already a primitive cell.
 

 Routine SETGRP: Setting up the symmetry group for a 
 triclinic supercell.


 Subroutine GETGRP returns: Found  1 space group operations
 (whereof  1 operations were pure point group operations)
 out of a pool of  2 trial point group operations.


The dynamic configuration has the point symmetry C_1 .


Analysis of structural, dynamic, and magnetic symmetry:
=====================================================================
 Subroutine PRICEL returns:
 Original cell was already a primitive cell.
 

 Routine SETGRP: Setting up the symmetry group for a 
 triclinic supercell.


 Subroutine GETGRP returns: Found  1 space group operations
 (whereof  1 operations were pure point group operations)
 out of a pool of  2 trial point group operations.


The magnetic configuration has the point symmetry C_1 .


 Subroutine INISYM returns: Found  1 space group operations
 (whereof  1 operations are pure point group operations),
 and found     1 'primitive' translations

 
 
 KPOINTS: KPOINTS created by Atomic Simulation Env

Automatic generation of k-mesh.
Space group operators:
 irot       det(A)        alpha          n_x          n_y          n_z        tau_x        tau_y        tau_z
    1     1.000000     0.000001     1.000000     0.000000     0.000000     0.000000     0.000000     0.000000
 
 Subroutine IBZKPT returns following result:
 ===========================================
 
 Found      2 irreducible k-points:
 
 Following reciprocal coordinates:
            Coordinates               Weight
  0.250000  0.250000  0.000000      2.000000
 -0.250000  0.250000 -0.000000      2.000000
 
 Following cartesian coordinates:
            Coordinates               Weight
  0.019381  0.020423  0.000292      2.000000
 -0.019381  0.020031  0.000302      2.000000
 
 
 Subroutine IBZKPT_HF returns following result:
 ==============================================
 
 Found      4 k-points in 1st BZ
 the following      4 k-points will be used (e.g. in the exchange kernel)
 Following reciprocal coordinates:   # in IRBZ
  0.250000  0.250000  0.000000    0.25000000   1 t-inv F
 -0.250000  0.250000 -0.000000    0.25000000   2 t-inv F
 -0.250000 -0.250000  0.000000    0.25000000   1 t-inv T
  0.250000 -0.250000  0.000000    0.25000000   2 t-inv T


--------------------------------------------------------------------------------------------------------




 Dimension of arrays:
   k-points           NKPTS =      2   k-points in BZ     NKDIM =      4   number of bands    NBANDS=    159
   number of dos      NEDOS =    301   number of ions     NIONS =     60
   non local maximal  LDIM  =      6   non local SUM 2l+1 LMDIM =     18
   total plane-waves  NPLWV = ******
   max r-space proj   IRMAX =      1   max aug-charges    IRDMAX=  28371
   dimension x,y,z NGX =    96 NGY =   90 NGZ =  150
   dimension x,y,z NGXF=   192 NGYF=  180 NGZF=  300
   support grid    NGXF=   192 NGYF=  180 NGZF=  300
   ions per type =              54   4   1   1
   NGX,Y,Z   is equivalent  to a cutoff of  12.37, 12.10, 12.51 a.u.
   NGXF,Y,Z  is equivalent  to a cutoff of  24.74, 24.21, 25.03 a.u.

 SYSTEM =  unknown system                          
 POSCAR =   C  N Fe Ti                             

 Startparameter for this run:
   NWRITE =      2    write-flag & timer
   PREC   = accura    normal or accurate (medium, high low for compatibility)
   ISTART =      1    job   : 0-new  1-cont  2-samecut
   ICHARG =      0    charge: 1-file 2-atom 10-const
   ISPIN  =      2    spin polarized calculation?
   LNONCOLLINEAR =      F non collinear calculations
   LSORBIT =      F    spin-orbit coupling
   INIWAV =      1    electr: 0-lowe 1-rand  2-diag
   LASPH  =      T    aspherical Exc in radial PAW
   METAGGA=      F    non-selfconsistent MetaGGA calc.

 Electronic Relaxation 1
   ENCUT  =  500.0 eV  36.75 Ry    6.06 a.u.  23.52 22.54 36.33*2*pi/ulx,y,z
   ENINI  =  500.0     initial cutoff
   ENAUG  =  644.9 eV  augmentation charge cutoff
   NELM   =    250;   NELMIN=  2; NELMDL=  0     # of ELM steps 
   EDIFF  = 0.1E-03   stopping-criterion for ELM
   LREAL  =      F    real-space projection
   NLSPLINE    = F    spline interpolate recip. space projectors
   LCOMPAT=      F    compatible to vasp.4.4
   GGA_COMPAT  = T    GGA compatible to vasp.4.4-vasp.4.6
   LMAXPAW     = -100 max onsite density
   LMAXMIX     =    2 max onsite mixed and CHGCAR
   VOSKOWN=      0    Vosko Wilk Nusair interpolation
   ROPT   =    0.00000   0.00000   0.00000   0.00000
 Ionic relaxation
   EDIFFG = -.3E-01   stopping-criterion for IOM
   NSW    =      0    number of steps for IOM
   NBLOCK =      1;   KBLOCK =      1    inner block; outer block 
   IBRION =     -1    ionic relax: 0-MD 1-quasi-New 2-CG
   NFREE  =      1    steps in history (QN), initial steepest desc. (CG)
   ISIF   =      2    stress and relaxation
   IWAVPR =     10    prediction:  0-non 1-charg 2-wave 3-comb
   ISYM   =      3    0-nonsym 1-usesym 2-fastsym
   LCORR  =      T    Harris-Foulkes like correction to forces

   POTIM  = 0.5000    time-step for ionic-motion
   TEIN   =    0.0    initial temperature
   TEBEG  =    0.0;   TEEND  =   0.0 temperature during run
   SMASS  =  -3.00    Nose mass-parameter (am)
   estimated Nose-frequenzy (Omega)   =  0.10E-29 period in steps =****** mass=  -0.380E-26a.u.
   SCALEE = 1.0000    scale energy and forces
   NPACO  =    256;   APACO  = 16.0  distance and # of slots for P.C.
   PSTRESS=    0.0 pullay stress

  Mass of Ions in am
   POMASS =  12.01 14.00 55.85 47.88
  Ionic Valenz
   ZVAL   =   4.00  5.00  8.00  4.00
  Atomic Wigner-Seitz radii
   RWIGS  =  -1.00 -1.00 -1.00 -1.00
  virtual crystal weights 
   VCA    =   1.00  1.00  1.00  1.00
   NELECT =     248.0000    total number of electrons
   NUPDOWN=      -1.0000    fix difference up-down

 DOS related values:
   EMIN   =  10.00;   EMAX   =-10.00  energy-range for DOS
   EFERMI =   0.00
   ISMEAR =     0;   SIGMA  =   0.10  broadening in eV -4-tet -1-fermi 0-gaus

 Electronic relaxation 2 (details)
   IALGO  =     53    algorithm
   LDIAG  =      T    sub-space diagonalisation (order eigenvalues)
   LSUBROT=      F    optimize rotation matrix (better conditioning)
   TURBO    =      0    0=normal 1=particle mesh
   IRESTART =      0    0=no restart 2=restart with 2 vectors
   NREBOOT  =      0    no. of reboots
   NMIN     =      0    reboot dimension
   EREF     =   0.00    reference energy to select bands
   IMIX   =      4    mixing-type and parameters
     AMIX     =   0.40;   BMIX     =  1.00
     AMIX_MAG =   1.60;   BMIX_MAG =  1.00
     AMIN     =   0.10
     WC   =   100.;   INIMIX=   1;  MIXPRE=   1;  MAXMIX= -45

 Intra band minimization:
   WEIMIN = 0.0000     energy-eigenvalue tresh-hold
   EBREAK =  0.16E-06  absolut break condition
   DEPER  =   0.30     relativ break condition  

   TIME   =   0.20     timestep for ELM

  volume/ion in A,a.u.               =      52.95       357.31
  Fermi-wavevector in a.u.,A,eV,Ry     =   0.699667  1.322180  6.660522  0.489535
  Thomas-Fermi vector in A             =   1.783609
 
 Write flags
   LWAVE        =      T    write WAVECAR
   LDOWNSAMPLE  =      F    k-point downsampling of WAVECAR
   LCHARG       =      T    write CHGCAR
   LVTOT        =      F    write LOCPOT, total local potential
   LVHAR        =      F    write LOCPOT, Hartree potential only
   LELF         =      F    write electronic localiz. function (ELF)
   LORBIT       =     11    0 simple, 1 ext, 2 COOP (PROOUT), +10 PAW based schemes


 Dipole corrections
   LMONO  =      F    monopole corrections only (constant potential shift)
   LDIPOL =      T    correct potential (dipole corrections)
   IDIPOL =      3    1-x, 2-y, 3-z, 4-all directions 
   EPSILON=  1.0000000 bulk dielectric constant

 Exchange correlation treatment:
   GGA     =    PE    GGA type
   LEXCH   =     8    internal setting for exchange type
   VOSKOWN=      0    Vosko Wilk Nusair interpolation
   EXXOEP  =     0    0=HF, 1=EXX-LHF (local Hartree Fock) 2=EXX OEP
   LHFCALC =     T    Hartree Fock is set to
   LSYMGRAD=     F    symmetrize gradient (conserves proper symmetry)
   PRECFOCK=normal    Normal, Fast or Accurate (Low or Medium for compatibility)
   LRHFCALC=     F    long range Hartree Fock
   LRSCOR  =     F    long range correlation only (use DFT for short range part)
   LTHOMAS =     F    Thomas Fermi screening in HF
   LMODELHF=     F    short range full HF, long range fraction AEXX
   ENCUT4O =  -1.0   cutoff for four orbital integrals eV
   LMAXFOCK=     4    L truncation for augmentation on plane wave grid
   LMAXFOCKAE=  -1    L truncation for all-electron charge restoration on plane wave grid
   NMAXFOCKAE=   1    number of basis functions for all-electron charge restoration
   LFOCKAEDFT=     F  apply the AE augmentation even for DFT
   NKREDX  =     1    reduce k-point grid by
   NKREDY  =     1    reduce k-point grid by
   NKREDZ  =     1    reduce k-point grid by
   SHIFTRED=     F    shift reduced grid of Gamma
   HFKIDENT=     F    idential grid for each k-point
   ODDONLY =     F    use only odd q-grid points
   EVENONLY=     F    use only even q-grid points
   HFALPHA =   -1.0000 decay constant for conv. correction
   MCALPHA =    0.0000 extent of test-charge in conv. correction in multipole expansion
   AEXX    =    0.2500 exact exchange contribution
   HFSCREEN=    0.2000 screening length (either q_TF or 0.3 A-1)
   HFSCREENC=   0.2000 screening length for correlation (either q_TF or 0.3 A-1)
   HFRCUT  =    0.0000 spherical cutoff for potential kernel
   ALDAX   =    0.7500 LDA exchange part
   AGGAX   =    0.7500 GGA exchange part
   ALDAC   =    1.0000 LDA correlation
   AGGAC   =    1.0000 GGA correlation
   ENCUTFOCK=  -1.0 apply spherical cutoff to Coloumb kernel
   NBANDSGWLOW=     1    first orbital included in HF term
   NBLOCK_FOCK=    64    blocking factor in FOCK_ACC
 Linear response parameters
   LEPSILON=     F    determine dielectric tensor
   LRPA    =     F    only Hartree local field effects (RPA)
   LNABLA  =     F    use nabla operator in PAW spheres
   LVEL    =     F    velocity operator in full k-point grid
   LINTERFAST=   F  fast interpolation
   KINTER  =     0    interpolate to denser k-point grid
   CSHIFT  =0.1000    complex shift for real part using Kramers Kronig
   OMEGAMAX=  -1.0    maximum frequency
   DEG_THRESHOLD= 0.2000000E-02 threshold for treating states as degnerate
   RTIME   =   -0.100 relaxation time in fs
  (WPLASMAI=    0.000 imaginary part of plasma frequency in eV, 0.658/RTIME)
   DFIELD  = 0.0000000 0.0000000 0.0000000 field for delta impulse in time
 
 Orbital magnetization related:
   ORBITALMAG=     F  switch on orbital magnetization
   LCHIMAG   =     F  perturbation theory with respect to B field
   DQ        =  0.001000  dq finite difference perturbation B field
   LLRAUG    =     F  two centre corrections for induced B field



--------------------------------------------------------------------------------------------------------


 Static calculation
 charge density and potential will be updated during run
 spin polarized calculation
 Conjugate gradient for all bands (Freysoldt, et al. PRB 79, 241103 (2009))
 perform sub-space diagonalisation
    before iterative eigenvector-optimisation
 modified Broyden-mixing scheme, WC =      100.0
 initial mixing is a Kerker type mixing with AMIX =  0.4000 and BMIX =      1.0000
 Hartree-type preconditioning will be used
 using additional bands           35
 reciprocal scheme for non local part
 use partial core corrections
 no Harris-corrections to forces 
 use gradient corrections 
 use of overlap-Matrix (Vanderbilt PP)
 Gauss-broadening in eV      SIGMA  =   0.10


--------------------------------------------------------------------------------------------------------


  energy-cutoff  :      500.00
  volume of cell :     3176.88
      direct lattice vectors                 reciprocal lattice vectors
    12.899300000  0.000000000  0.000000000     0.077523587  0.000783167 -0.000019615
    -0.124863223 12.359869313  0.000000000     0.000000000  0.080907004  0.001188942
     0.007999692 -0.292816663 19.926047015     0.000000000  0.000000000  0.050185569

  length of vectors
    12.899300000 12.360500000 19.928200000     0.077527545  0.080915740  0.050185569


 
 old parameters found on file WAVECAR:
  energy-cutoff  :      500.00
  volume of cell :     3176.88
      direct lattice vectors                 reciprocal lattice vectors
    12.899300000  0.000000000  0.000000000     0.077523587  0.000783167 -0.000019615
    -0.124863223 12.359869313  0.000000000     0.000000000  0.080907004  0.001188942
     0.007999692 -0.292816663 19.926047015     0.000000000  0.000000000  0.050185569

  length of vectors

 
 k-points in units of 2pi/SCALE and weight: KPOINTS created by Atomic Simulation Env
   0.01938090  0.02042254  0.00029233       0.500
  -0.01938090  0.02003096  0.00030214       0.500
 
 k-points in reciprocal lattice and weights: KPOINTS created by Atomic Simulation Env
   0.25000000  0.25000000  0.00000000       0.500
  -0.25000000  0.25000000 -0.00000000       0.500
 
 position of ions in fractional coordinates (direct lattice) 
   0.22093528  0.00291291  0.49587261
   0.05553012  0.10195194  0.49310220
   0.10981899  0.00213573  0.49347956
   0.27753359  0.10339290  0.49794218
   0.22382940  0.20514305  0.49987790
   0.05602467  0.30150723  0.49434953
   0.11214857  0.20265383  0.49571648
   0.28024133  0.30662014  0.50666097
   0.22074003  0.40696024  0.50711403
   0.05388056  0.50167308  0.49561803
   0.11054837  0.40261556  0.49772587
   0.21742906  0.60236139  0.50737536
   0.05291773  0.70204218  0.49296865
   0.10825589  0.60279227  0.49710569
   0.27274514  0.70436634  0.50758358
   0.21837802  0.80250845  0.49810003
   0.05352092  0.90196619  0.49183212
   0.10805710  0.80221378  0.49336937
   0.27515308  0.90276821  0.49798330
   0.55416140  0.99777192  0.49827268
   0.38835161  0.10100853  0.49811393
   0.44312214  0.00046806  0.49807459
   0.61065291  0.09814462  0.49635208
   0.55623526  0.19838841  0.49860678
   0.39358544  0.30208278  0.50873316
   0.44535151  0.20057975  0.50068469
   0.61272748  0.29828763  0.49876206
   0.55754720  0.39678018  0.50860575
   0.61422325  0.49795188  0.50773095
   0.61118265  0.69496255  0.50693866
   0.55109399  0.79475048  0.50655963
   0.38610382  0.90122527  0.50012006
   0.43803279  0.80006864  0.50788623
   0.60793139  0.89664502  0.50018029
   0.88740898  0.00019561  0.49149440
   0.72153558  0.09875471  0.49395347
   0.77596894  0.99893682  0.49331736
   0.94406817  0.10057758  0.49155547
   0.88884610  0.19994112  0.49146100
   0.72315078  0.29852702  0.49404126
   0.77789115  0.19888150  0.49241781
   0.94484585  0.30038100  0.49186134
   0.88912574  0.39963666  0.49200726
   0.72308627  0.49775994  0.49760132
   0.77856848  0.39849240  0.49349240
   0.94371977  0.50048483  0.49277225
   0.88766205  0.60008465  0.49273111
   0.72127912  0.69851329  0.49769859
   0.77746930  0.59907085  0.49576362
   0.94225025  0.70090947  0.49166840
   0.88665881  0.80032029  0.49154244
   0.71932204  0.89844828  0.49594547
   0.77566410  0.79939680  0.49427276
   0.94258472  0.90083747  0.49105774
   0.26814125  0.50641076  0.51840989
   0.45231174  0.39462837  0.52020111
   0.56429800  0.59549695  0.51861378
   0.37857267  0.70813105  0.51900930
   0.37952934  0.48845911  0.58363046
   0.45357012  0.62077231  0.58796096
 
 position of ions in cartesian coordinates  (Angst):
   2.85351356 -0.10919654  9.88078100
   0.70751425  1.11572414  9.82557767
   1.42026913 -0.11810171  9.83309684
   3.57106249  1.13211703  9.92201921
   2.86562667  2.38916868  9.96059064
   0.68898648  3.58183620  9.85043194
   1.42529958  2.35962075  9.87766980
   3.58068459  3.64142608 10.09575041
   2.80063421  4.88148393 10.10477803
   0.63634576  6.05548854  9.87570826
   1.37970642  4.83053330  9.91770910
   2.73352877  7.29654006 10.10998536
   0.59888596  8.53280012  9.82291653
   1.32513536  7.30487291  9.90535128
   3.43433238  8.55724694 10.11413419
   2.72070441  9.77304752  9.92516459
   0.58169445 11.00416762  9.80027004
   1.29764079  9.77079075  9.83090123
   3.44054329 11.01227934  9.92283861
   7.02769510 12.18642805  9.92860479
   5.00083646  1.10259622  9.92544168
   5.71989146 -0.14005937  9.92465770
   7.86871115  1.06771455  9.89033488
   7.15426273  2.30605443  9.93526223
   5.04332737  3.58473818 10.13704083
   5.72368300  2.33253064  9.97666664
   7.87050039  3.54075026  9.93835629
   7.14649407  4.75522299 10.13450201
   7.86493581  6.00594807 10.11707075
   7.80110840  8.44120621 10.10128360
   7.01354395  9.67468299 10.09373103
   4.87193997 10.99258307  9.96541583
   5.55448010  9.74002632 10.12016496
   7.73393262 10.93595411  9.96661603
  11.45086204 -0.14150007  9.79354058
   9.29892458  1.07595747  9.84254008
   9.88867208 12.20227703  9.82986498
  12.16919235  1.09919009  9.79475733
  11.44445871  2.32733810  9.79287490
   9.29481596  3.54509144  9.84428939
  10.01335745  2.31396116  9.81194035
  12.15427823  3.56864469  9.80085214
  11.42313561  4.79538891  9.80375984
   9.26913541  6.00654191  9.91522730
   9.99717910  4.78081125  9.83335283
  12.11477434  6.04163520  9.81900300
  11.37923233  7.27268795  9.81818323
   9.22075854  8.48779854  9.91716548
   9.95797372  7.25926958  9.87860926
  12.07078408  8.51918079  9.79700758
  11.34127959  9.74792240  9.79449786
   9.17053500 10.95948218  9.88223282
   9.90966275  9.73570870  9.84890221
  12.05012996 10.99044347  9.78483968
   3.39974946  6.10737179 10.32985991
   5.78939175  4.72523157 10.36555180
   7.20884232  7.20840568 10.33392262
   4.79905482  8.60043269 10.34180376
   4.83934110  5.86639398 11.62944807
   5.77792896  7.50049988 11.71573776
 


--------------------------------------------------------------------------------------------------------


 k-point  1 :   0.2500 0.2500 0.0000  plane waves:   80649
 k-point  2 :  -0.2500 0.2500-0.0000  plane waves:   80652

 maximum and minimum number of plane-waves per node :      5068     5018

 maximum number of plane-waves:     80652
 maximum index in each direction: 
   IXMAX=   23   IYMAX=   22   IZMAX=   36
   IXMIN=  -23   IYMIN=  -22   IZMIN=  -36


 parallel 3D FFT for wavefunctions:
    minimum data exchange during FFTs selected (reduces bandwidth)
 parallel 3D FFT for charge:
    minimum data exchange during FFTs selected (reduces bandwidth)


 FFT grid for exact exchange (Hartree Fock) 
  NGX = 72; NGY = 70; NGZ =112

 
 Radii for the augmentation spheres in the non-local exchange
 for species   1 augmentation radius   0.874 (default was   0.699)
       energy cutoff for augmentation   2000.0
 for species   2 augmentation radius   0.886 (default was   0.709)
       energy cutoff for augmentation   2000.0
 for species   3 augmentation radius   1.263 (default was   1.010)
       energy cutoff for augmentation   2000.0
 for species   4 augmentation radius   1.575 (default was   1.260)
       energy cutoff for augmentation   2000.0

 real space projection operators:
  total allocation   :       2870.75 KBytes
  max/ min on nodes  :        205.01        151.41

 Maximum index for augmentation-charges in exchange          245
  SETUP_FOCK is finished

 total amount of memory used by VASP MPI-rank0   296025. kBytes
=======================================================================

   base      :      30000. kBytes
   nonl-proj :      10720. kBytes
   fftplans  :      26523. kBytes
   grid      :      69087. kBytes
   one-center:        124. kBytes
   HF        :         23. kBytes
   nonlr-proj:       3308. kBytes
   wavefun   :     156240. kBytes
 
     INWAV:  cpu time    7.6049: real time   10.5728
 Broyden mixing: mesh for mixing (old mesh)
   NGX = 47   NGY = 45   NGZ = 73
  (NGX  =192   NGY  =180   NGZ  =300)
  gives a total of 154395 points

 charge density for first step will be calculated from the start-wavefunctions


--------------------------------------------------------------------------------------------------------


 Maximum index for augmentation-charges         1782 (set IRDMAX)


--------------------------------------------------------------------------------------------------------


 initial charge from wavefunction
 First call to EWALD:  gamma=   0.121
 Maximum number of real-space cells 3x 3x 2
 Maximum number of reciprocal cells 2x 2x 4

    FEWALD:  cpu time    0.0028: real time    0.0028


--------------------------------------- Iteration      1(   1)  ---------------------------------------


    POTLOK:  cpu time    6.3473: real time    6.3588
    SETDIJ:  cpu time    3.1691: real time    3.1711
    TRIAL :  cpu time  611.5679: real time  612.8287
    CORREC:  cpu time    0.0033: real time    0.0033
    CHARGE:  cpu time    1.7790: real time    1.7966
    --------------------------------------------
      LOOP:  cpu time  622.9213: real time  624.2156

 eigenvalue-minimisations  :     0
 total energy-change (2. order) :-0.6280462E+03  (-0.4115794E+00)
 number of electron     248.0000004 magnetization       2.3786240
 augmentation part       11.4359789 magnetization       1.0259626

 DIPCOR: dipole corrections for dipol
 direction  3 min pos     1,
 dipolmoment          -0.000093      0.003387     -0.230475 electrons x Angstroem
 Tr[quadrupol]     -6764.525529

 energy correction for charged system         0.000000 eV
 dipol+quadrupol energy correction            0.001519 eV
 added-field ion interaction          0.000000 eV  (added to PSCEN)


 Free energy of the ion-electron system (eV)
  ---------------------------------------------------
  alpha Z        PSCENC =       106.92382543
  Ewald energy   TEWEN  =     39557.24533884
  -Hartree energ DENC   =    -47813.38837885
  -exchange      EXHF   =       556.96533925
  -V(xc)+E(xc)   XCENC  =       605.23955309
  PAW double counting   =     26756.76850298   -26761.66964537
  entropy T*S    EENTRO =        -0.03592567
  eigenvalues    EBANDS =     -3215.02228153
  atomic energy  EATOM  =      9578.92767896
  ---------------------------------------------------
  free energy    TOTEN  =      -628.04623603 eV

  energy without entropy =     -628.01031036  energy(sigma->0) =     -628.02827319
  exchange ACFDT corr.  =        -0.04207164  see jH, gK, PRB 81, 115126


--------------------------------------------------------------------------------------------------------




--------------------------------------- Iteration      1(   2)  ---------------------------------------


    POTLOK:  cpu time    6.4185: real time    6.4244
    SETDIJ:  cpu time    3.1583: real time    3.1614
    TRIAL :  cpu time  608.0285: real time  609.2390
    CORREC:  cpu time    0.0031: real time    0.0031
    CHARGE:  cpu time    1.7895: real time    1.7919
    --------------------------------------------
      LOOP:  cpu time  619.3989: real time  620.6252

 eigenvalue-minimisations  :     0
 total energy-change (2. order) :-0.3279895E+00  (-0.3300710E+00)
 number of electron     248.0000004 magnetization       2.4238821
 augmentation part       11.3633976 magnetization       1.0804740

 DIPCOR: dipole corrections for dipol
 direction  3 min pos     1,
 dipolmoment          -0.000108      0.003945     -0.268448 electrons x Angstroem
 Tr[quadrupol]     -6764.393767

 energy correction for charged system         0.000000 eV
 dipol+quadrupol energy correction            0.002061 eV
 added-field ion interaction          0.000000 eV  (added to PSCEN)


 Free energy of the ion-electron system (eV)
  ---------------------------------------------------
  alpha Z        PSCENC =       106.92436717
  Ewald energy   TEWEN  =     39557.24533884
  -Hartree energ DENC   =    -47799.57293694
  -exchange      EXHF   =       556.78463374
  -V(xc)+E(xc)   XCENC  =       604.91309214
  PAW double counting   =     26894.05022037   -26898.58869688
  entropy T*S    EENTRO =        -0.03609711
  eigenvalues    EBANDS =     -3229.02199724
  atomic energy  EATOM  =      9578.92767896
  ---------------------------------------------------
  free energy    TOTEN  =      -628.37422552 eV

  energy without entropy =     -628.33812841  energy(sigma->0) =     -628.35617696
  exchange ACFDT corr.  =        -0.04455678  see jH, gK, PRB 81, 115126


--------------------------------------------------------------------------------------------------------




--------------------------------------- Iteration      1(   3)  ---------------------------------------


    POTLOK:  cpu time    6.4719: real time    6.4777
    SETDIJ:  cpu time    3.1683: real time    3.1850
    TRIAL :  cpu time  608.6267: real time  610.0661
    CORREC:  cpu time    0.0013: real time    0.0012
    CHARGE:  cpu time    1.6726: real time    1.6751
    --------------------------------------------
      LOOP:  cpu time  619.9416: real time  621.4101

 eigenvalue-minimisations  :     0
 total energy-change (2. order) :-0.2438286E+00  (-0.1785122E+00)
 number of electron     248.0000004 magnetization       2.4550657
 augmentation part       11.3445823 magnetization       1.1258158

 DIPCOR: dipole corrections for dipol
 direction  3 min pos     1,
 dipolmoment          -0.000126      0.004608     -0.313572 electrons x Angstroem
 Tr[quadrupol]     -6764.277083

 energy correction for charged system         0.000000 eV
 dipol+quadrupol energy correction            0.002812 eV
 added-field ion interaction          0.000000 eV  (added to PSCEN)


 Free energy of the ion-electron system (eV)
  ---------------------------------------------------
  alpha Z        PSCENC =       106.92511814
  Ewald energy   TEWEN  =     39557.24533884
  -Hartree energ DENC   =    -47782.60039458
  -exchange      EXHF   =       556.59140488
  -V(xc)+E(xc)   XCENC  =       604.49850463
  PAW double counting   =     27063.88441256   -27067.82572266
  entropy T*S    EENTRO =        -0.03626808
  eigenvalues    EBANDS =     -3246.22829781
  atomic energy  EATOM  =      9578.92767896
  ---------------------------------------------------
  free energy    TOTEN  =      -628.61805414 eV

  energy without entropy =     -628.58178606  energy(sigma->0) =     -628.59992010
  exchange ACFDT corr.  =        -0.04224600  see jH, gK, PRB 81, 115126


--------------------------------------------------------------------------------------------------------




--------------------------------------- Iteration      1(   4)  ---------------------------------------


    POTLOK:  cpu time    6.4664: real time    6.4717
    SETDIJ:  cpu time    3.1856: real time    3.1886
    TRIAL :  cpu time  606.8595: real time  608.0391
    CORREC:  cpu time    0.0018: real time    0.0017
    CHARGE:  cpu time    1.6721: real time    1.6741
    --------------------------------------------
      LOOP:  cpu time  618.1888: real time  619.3841

 eigenvalue-minimisations  :     0
 total energy-change (2. order) :-0.1357970E+00  (-0.1040176E+00)
 number of electron     248.0000004 magnetization       2.4860187
 augmentation part       11.3516240 magnetization       1.1638094

 DIPCOR: dipole corrections for dipol
 direction  3 min pos     1,
 dipolmoment          -0.000128      0.004684     -0.318712 electrons x Angstroem
 Tr[quadrupol]     -6764.242545

 energy correction for charged system         0.000000 eV
 dipol+quadrupol energy correction            0.002905 eV
 added-field ion interaction          0.000000 eV  (added to PSCEN)


 Free energy of the ion-electron system (eV)
  ---------------------------------------------------
  alpha Z        PSCENC =       106.92521105
  Ewald energy   TEWEN  =     39557.24533884
  -Hartree energ DENC   =    -47775.01996082
  -exchange      EXHF   =       556.60444584
  -V(xc)+E(xc)   XCENC  =       604.30949721
  PAW double counting   =     27204.81297513   -27208.72824473
  entropy T*S    EENTRO =        -0.03665208
  eigenvalues    EBANDS =     -3253.79452456
  atomic energy  EATOM  =      9578.92767896
  ---------------------------------------------------
  free energy    TOTEN  =      -628.75385115 eV

  energy without entropy =     -628.71719908  energy(sigma->0) =     -628.73552511
  exchange ACFDT corr.  =        -0.03904475  see jH, gK, PRB 81, 115126


--------------------------------------------------------------------------------------------------------




--------------------------------------- Iteration      1(   5)  ---------------------------------------


    POTLOK:  cpu time    6.4700: real time    6.4760
    SETDIJ:  cpu time    3.1681: real time    3.1710
    TRIAL :  cpu time  605.1873: real time  606.3523
    CORREC:  cpu time    0.0081: real time    0.0081
    CHARGE:  cpu time    1.7548: real time    1.7584
    --------------------------------------------
      LOOP:  cpu time  616.5898: real time  617.7712

 eigenvalue-minimisations  :     0
 total energy-change (2. order) :-0.8260038E-01  (-0.6941141E-01)
 number of electron     248.0000004 magnetization       2.5248765
 augmentation part       11.3574645 magnetization       1.1983834

 DIPCOR: dipole corrections for dipol
 direction  3 min pos     1,
 dipolmoment          -0.000133      0.004862     -0.330862 electrons x Angstroem
 Tr[quadrupol]     -6764.323331

 energy correction for charged system         0.000000 eV
 dipol+quadrupol energy correction            0.003130 eV
 added-field ion interaction          0.000000 eV  (added to PSCEN)


 Free energy of the ion-electron system (eV)
  ---------------------------------------------------
  alpha Z        PSCENC =       106.92543673
  Ewald energy   TEWEN  =     39557.24533884
  -Hartree energ DENC   =    -47776.35021906
  -exchange      EXHF   =       556.80305199
  -V(xc)+E(xc)   XCENC  =       604.34881766
  PAW double counting   =     27302.21805730   -27306.31125216
  entropy T*S    EENTRO =        -0.03717644
  eigenvalues    EBANDS =     -3252.60670972
  atomic energy  EATOM  =      9578.92767896
  ---------------------------------------------------
  free energy    TOTEN  =      -628.83645154 eV

  energy without entropy =     -628.79927510  energy(sigma->0) =     -628.81786332
  exchange ACFDT corr.  =        -0.03744042  see jH, gK, PRB 81, 115126


--------------------------------------------------------------------------------------------------------




--------------------------------------- Iteration      1(   6)  ---------------------------------------


    POTLOK:  cpu time    6.4700: real time    6.4768
    SETDIJ:  cpu time    3.1445: real time    3.1614
    TRIAL :  cpu time  604.3955: real time  605.5407
    CORREC:  cpu time    0.0028: real time    0.0028
    CHARGE:  cpu time    1.8118: real time    1.8139
    --------------------------------------------
      LOOP:  cpu time  615.8263: real time  616.9998

 eigenvalue-minimisations  :     0
 total energy-change (2. order) :-0.5780215E-01  (-0.5149332E-01)
 number of electron     248.0000004 magnetization       2.5640145
 augmentation part       11.3606262 magnetization       1.2286351

 DIPCOR: dipole corrections for dipol
 direction  3 min pos     1,
 dipolmoment          -0.000147      0.005364     -0.364998 electrons x Angstroem
 Tr[quadrupol]     -6764.465075

 energy correction for charged system         0.000000 eV
 dipol+quadrupol energy correction            0.003809 eV
 added-field ion interaction          0.000000 eV  (added to PSCEN)


 Free energy of the ion-electron system (eV)
  ---------------------------------------------------
  alpha Z        PSCENC =       106.92611596
  Ewald energy   TEWEN  =     39557.24533884
  -Hartree energ DENC   =    -47781.43672903
  -exchange      EXHF   =       557.06988126
  -V(xc)+E(xc)   XCENC  =       604.49709527
  PAW double counting   =     27363.23634421   -27367.42364915
  entropy T*S    EENTRO =        -0.03743288
  eigenvalues    EBANDS =     -3247.89915358
  atomic energy  EATOM  =      9578.92767896
  ---------------------------------------------------
  free energy    TOTEN  =      -628.89425368 eV

  energy without entropy =     -628.85682081  energy(sigma->0) =     -628.87553725
  exchange ACFDT corr.  =        -0.03519908  see jH, gK, PRB 81, 115126


--------------------------------------------------------------------------------------------------------




--------------------------------------- Iteration      1(   7)  ---------------------------------------


    POTLOK:  cpu time    6.4504: real time    6.4566
    SETDIJ:  cpu time    3.1531: real time    3.1550
    TRIAL :  cpu time  605.0635: real time  606.2084
    CORREC:  cpu time    0.0030: real time    0.0030
    CHARGE:  cpu time    1.7745: real time    1.7764
    --------------------------------------------
      LOOP:  cpu time  616.4460: real time  617.6040

 eigenvalue-minimisations  :     0
 total energy-change (2. order) :-0.4442624E-01  (-0.4032886E-01)
 number of electron     248.0000004 magnetization       2.5993630
 augmentation part       11.3625220 magnetization       1.2549109

 DIPCOR: dipole corrections for dipol
 direction  3 min pos     1,
 dipolmoment          -0.000160      0.005874     -0.399694 electrons x Angstroem
 Tr[quadrupol]     -6764.596599

 energy correction for charged system         0.000000 eV
 dipol+quadrupol energy correction            0.004568 eV
 added-field ion interaction          0.000000 eV  (added to PSCEN)


 Free energy of the ion-electron system (eV)
  ---------------------------------------------------
  alpha Z        PSCENC =       106.92687461
  Ewald energy   TEWEN  =     39557.24533884
  -Hartree energ DENC   =    -47786.73718555
  -exchange      EXHF   =       557.31432747
  -V(xc)+E(xc)   XCENC  =       604.66208838
  PAW double counting   =     27399.29008206   -27403.54226956
  entropy T*S    EENTRO =        -0.03734295
  eigenvalues    EBANDS =     -3242.98818227
  atomic energy  EATOM  =      9578.92767896
  ---------------------------------------------------
  free energy    TOTEN  =      -628.93867993 eV

  energy without entropy =     -628.90133698  energy(sigma->0) =     -628.92000846
  exchange ACFDT corr.  =        -0.03312818  see jH, gK, PRB 81, 115126


--------------------------------------------------------------------------------------------------------




--------------------------------------- Iteration      1(   8)  ---------------------------------------


    POTLOK:  cpu time    6.4252: real time    6.4456
    SETDIJ:  cpu time    3.1533: real time    3.1552
    TRIAL :  cpu time  605.0066: real time  606.1442
    CORREC:  cpu time    0.0079: real time    0.0079
    CHARGE:  cpu time    1.7206: real time    1.7227
    --------------------------------------------
      LOOP:  cpu time  616.3146: real time  617.4812

 eigenvalue-minimisations  :     0
 total energy-change (2. order) :-0.3583472E-01  (-0.3328555E-01)
 number of electron     248.0000004 magnetization       2.6315665
 augmentation part       11.3632280 magnetization       1.2785946

 DIPCOR: dipole corrections for dipol
 direction  3 min pos     1,
 dipolmoment          -0.000170      0.006215     -0.422903 electrons x Angstroem
 Tr[quadrupol]     -6764.687569

 energy correction for charged system         0.000000 eV
 dipol+quadrupol energy correction            0.005114 eV
 added-field ion interaction          0.000000 eV  (added to PSCEN)


 Free energy of the ion-electron system (eV)
  ---------------------------------------------------
  alpha Z        PSCENC =       106.92742052
  Ewald energy   TEWEN  =     39557.24533884
  -Hartree energ DENC   =    -47790.35479744
  -exchange      EXHF   =       557.49067347
  -V(xc)+E(xc)   XCENC  =       604.78835779
  PAW double counting   =     27418.91176947   -27423.22202118
  entropy T*S    EENTRO =        -0.03697832
  eigenvalues    EBANDS =     -3239.65159215
  atomic energy  EATOM  =      9578.92767896
  ---------------------------------------------------
  free energy    TOTEN  =      -628.97451465 eV

  energy without entropy =     -628.93753632  energy(sigma->0) =     -628.95602548
  exchange ACFDT corr.  =        -0.03102881  see jH, gK, PRB 81, 115126


--------------------------------------------------------------------------------------------------------




--------------------------------------- Iteration      1(   9)  ---------------------------------------


    POTLOK:  cpu time    6.3864: real time    6.4139
    SETDIJ:  cpu time    3.1946: real time    3.1982
    TRIAL :  cpu time  605.2887: real time  606.6454
    CORREC:  cpu time    0.0012: real time    0.0012
    CHARGE:  cpu time    1.6531: real time    1.6705
    --------------------------------------------
      LOOP:  cpu time  616.5252: real time  617.9333

 eigenvalue-minimisations  :     0
 total energy-change (2. order) :-0.3045574E-01  (-0.2873526E-01)
 number of electron     248.0000004 magnetization       2.6612699
 augmentation part       11.3637717 magnetization       1.3004836

 DIPCOR: dipole corrections for dipol
 direction  3 min pos     1,
 dipolmoment          -0.000175      0.006398     -0.435403 electrons x Angstroem
 Tr[quadrupol]     -6764.741602

 energy correction for charged system         0.000000 eV
 dipol+quadrupol energy correction            0.005421 eV
 added-field ion interaction          0.000000 eV  (added to PSCEN)


 Free energy of the ion-electron system (eV)
  ---------------------------------------------------
  alpha Z        PSCENC =       106.92772731
  Ewald energy   TEWEN  =     39557.24533884
  -Hartree energ DENC   =    -47791.97600136
  -exchange      EXHF   =       557.59745597
  -V(xc)+E(xc)   XCENC  =       604.86258031
  PAW double counting   =     27428.35942141   -27432.70466886
  entropy T*S    EENTRO =        -0.03640046
  eigenvalues    EBANDS =     -3238.20752465
  atomic energy  EATOM  =      9578.92767896
  ---------------------------------------------------
  free energy    TOTEN  =      -629.00497039 eV

  energy without entropy =     -628.96856993  energy(sigma->0) =     -628.98677016
  exchange ACFDT corr.  =        -0.02889166  see jH, gK, PRB 81, 115126


--------------------------------------------------------------------------------------------------------




--------------------------------------- Iteration      1(  10)  ---------------------------------------


    POTLOK:  cpu time    6.4136: real time    6.4189
    SETDIJ:  cpu time    3.1642: real time    3.1676
    TRIAL :  cpu time  603.4018: real time  604.5546
    CORREC:  cpu time    0.0015: real time    0.0014
    CHARGE:  cpu time    1.6599: real time    1.6618
    --------------------------------------------
      LOOP:  cpu time  614.6419: real time  615.8081

 eigenvalue-minimisations  :     0
 total energy-change (2. order) :-0.2669026E-01  (-0.2503025E-01)
 number of electron     248.0000004 magnetization       2.6891142
 augmentation part       11.3647982 magnetization       1.3209864

 DIPCOR: dipole corrections for dipol
 direction  3 min pos     1,
 dipolmoment          -0.000177      0.006497     -0.442105 electrons x Angstroem
 Tr[quadrupol]     -6764.774696

 energy correction for charged system         0.000000 eV
 dipol+quadrupol energy correction            0.005589 eV
 added-field ion interaction          0.000000 eV  (added to PSCEN)


 Free energy of the ion-electron system (eV)
  ---------------------------------------------------
  alpha Z        PSCENC =       106.92789548
  Ewald energy   TEWEN  =     39557.24533884
  -Hartree energ DENC   =    -47792.41238215
  -exchange      EXHF   =       557.66028666
  -V(xc)+E(xc)   XCENC  =       604.90294893
  PAW double counting   =     27432.14612432   -27436.52031650
  entropy T*S    EENTRO =        -0.03564496
  eigenvalues    EBANDS =     -3237.87283475
  atomic energy  EATOM  =      9578.92767896
  ---------------------------------------------------
  free energy    TOTEN  =      -629.03166065 eV

  energy without entropy =     -628.99601569  energy(sigma->0) =     -629.01383817
  exchange ACFDT corr.  =        -0.02677995  see jH, gK, PRB 81, 115126


--------------------------------------------------------------------------------------------------------




--------------------------------------- Iteration      1(  11)  ---------------------------------------


    POTLOK:  cpu time    6.4051: real time    6.4119
    SETDIJ:  cpu time    3.1637: real time    3.1667
    TRIAL :  cpu time  603.7485: real time  604.9243
    CORREC:  cpu time    0.0025: real time    0.0025
    CHARGE:  cpu time    1.6573: real time    1.6595
    --------------------------------------------
      LOOP:  cpu time  614.9780: real time  616.1686

 eigenvalue-minimisations  :     0
 total energy-change (2. order) :-0.2341256E-01  (-0.2200303E-01)
 number of electron     248.0000004 magnetization       2.7159666
 augmentation part       11.3657403 magnetization       1.3404560

 DIPCOR: dipole corrections for dipol
 direction  3 min pos     1,
 dipolmoment          -0.000180      0.006589     -0.448374 electrons x Angstroem
 Tr[quadrupol]     -6764.802397

 energy correction for charged system         0.000000 eV
 dipol+quadrupol energy correction            0.005749 eV
 added-field ion interaction          0.000000 eV  (added to PSCEN)


 Free energy of the ion-electron system (eV)
  ---------------------------------------------------
  alpha Z        PSCENC =       106.92805510
  Ewald energy   TEWEN  =     39557.24533884
  -Hartree energ DENC   =    -47792.62655550
  -exchange      EXHF   =       557.70792599
  -V(xc)+E(xc)   XCENC  =       604.93399165
  PAW double counting   =     27433.30848125   -27437.72530310
  entropy T*S    EENTRO =        -0.03471307
  eigenvalues    EBANDS =     -3237.71904144
  atomic energy  EATOM  =      9578.92767896
  ---------------------------------------------------
  free energy    TOTEN  =      -629.05507321 eV

  energy without entropy =     -629.02036014  energy(sigma->0) =     -629.03771667
  exchange ACFDT corr.  =        -0.02475612  see jH, gK, PRB 81, 115126


--------------------------------------------------------------------------------------------------------




--------------------------------------- Iteration      1(  12)  ---------------------------------------


    POTLOK:  cpu time    6.3865: real time    6.3917
    SETDIJ:  cpu time    3.1765: real time    3.1797
    TRIAL :  cpu time  603.5346: real time  604.6834
    CORREC:  cpu time    0.0081: real time    0.0082
    CHARGE:  cpu time    1.6634: real time    1.6654
    --------------------------------------------
      LOOP:  cpu time  614.7703: real time  615.9329

 eigenvalue-minimisations  :     0
 total energy-change (2. order) :-0.2061702E-01  (-0.1948646E-01)
 number of electron     248.0000004 magnetization       2.7418942
 augmentation part       11.3660920 magnetization       1.3589296

 DIPCOR: dipole corrections for dipol
 direction  3 min pos     1,
 dipolmoment          -0.000184      0.006719     -0.457205 electrons x Angstroem
 Tr[quadrupol]     -6764.832416

 energy correction for charged system         0.000000 eV
 dipol+quadrupol energy correction            0.005977 eV
 added-field ion interaction          0.000000 eV  (added to PSCEN)


 Free energy of the ion-electron system (eV)
  ---------------------------------------------------
  alpha Z        PSCENC =       106.92828377
  Ewald energy   TEWEN  =     39557.24533884
  -Hartree energ DENC   =    -47793.03221223
  -exchange      EXHF   =       557.75542782
  -V(xc)+E(xc)   XCENC  =       604.96747839
  PAW double counting   =     27433.85187177   -27438.31749493
  entropy T*S    EENTRO =        -0.03361923
  eigenvalues    EBANDS =     -3237.36734954
  atomic energy  EATOM  =      9578.92767896
  ---------------------------------------------------
  free energy    TOTEN  =      -629.07569022 eV

  energy without entropy =     -629.04207100  energy(sigma->0) =     -629.05888061
  exchange ACFDT corr.  =        -0.02582895  see jH, gK, PRB 81, 115126


--------------------------------------------------------------------------------------------------------




--------------------------------------- Iteration      1(  13)  ---------------------------------------


    POTLOK:  cpu time    6.3895: real time    6.3973
    SETDIJ:  cpu time    3.1638: real time    3.1658
    TRIAL :  cpu time  603.6099: real time  604.7748
    CORREC:  cpu time    0.0013: real time    0.0013
    CHARGE:  cpu time    1.6515: real time    1.6536
    --------------------------------------------
      LOOP:  cpu time  614.8170: real time  615.9965

 eigenvalue-minimisations  :     0
 total energy-change (2. order) :-0.1823879E-01  (-0.1725388E-01)
 number of electron     248.0000004 magnetization       2.7661590
 augmentation part       11.3661494 magnetization       1.3761148

 DIPCOR: dipole corrections for dipol
 direction  3 min pos     1,
 dipolmoment          -0.000188      0.006873     -0.467687 electrons x Angstroem
 Tr[quadrupol]     -6764.864400

 energy correction for charged system         0.000000 eV
 dipol+quadrupol energy correction            0.006254 eV
 added-field ion interaction          0.000000 eV  (added to PSCEN)


 Free energy of the ion-electron system (eV)
  ---------------------------------------------------
  alpha Z        PSCENC =       106.92856098
  Ewald energy   TEWEN  =     39557.24533884
  -Hartree energ DENC   =    -47793.58147136
  -exchange      EXHF   =       557.80423972
  -V(xc)+E(xc)   XCENC  =       605.00299861
  PAW double counting   =     27434.64440430   -27439.15114742
  entropy T*S    EENTRO =        -0.03242406
  eigenvalues    EBANDS =     -3236.88091243
  atomic energy  EATOM  =      9578.92767896
  ---------------------------------------------------
  free energy    TOTEN  =      -629.09392901 eV

  energy without entropy =     -629.06150495  energy(sigma->0) =     -629.07771698
  exchange ACFDT corr.  =        -0.02406157  see jH, gK, PRB 81, 115126


--------------------------------------------------------------------------------------------------------




--------------------------------------- Iteration      1(  14)  ---------------------------------------


    POTLOK:  cpu time    6.3730: real time    6.3794
    SETDIJ:  cpu time    3.1636: real time    3.1657
    TRIAL :  cpu time  603.8218: real time  605.2694
    CORREC:  cpu time    0.0015: real time    0.0015
    CHARGE:  cpu time    1.6557: real time    1.6584
    --------------------------------------------
      LOOP:  cpu time  615.0169: real time  616.4787

 eigenvalue-minimisations  :     0
 total energy-change (2. order) :-0.1616898E-01  (-0.1522657E-01)
 number of electron     248.0000004 magnetization       2.7881579
 augmentation part       11.3663706 magnetization       1.3917365

 DIPCOR: dipole corrections for dipol
 direction  3 min pos     1,
 dipolmoment          -0.000192      0.007012     -0.477154 electrons x Angstroem
 Tr[quadrupol]     -6764.894663

 energy correction for charged system         0.000000 eV
 dipol+quadrupol energy correction            0.006510 eV
 added-field ion interaction          0.000000 eV  (added to PSCEN)


 Free energy of the ion-electron system (eV)
  ---------------------------------------------------
  alpha Z        PSCENC =       106.92881674
  Ewald energy   TEWEN  =     39557.24533884
  -Hartree energ DENC   =    -47794.12160245
  -exchange      EXHF   =       557.85089117
  -V(xc)+E(xc)   XCENC  =       605.03681246
  PAW double counting   =     27435.82332479   -27440.36318447
  entropy T*S    EENTRO =        -0.03120002
  eigenvalues    EBANDS =     -3236.40574997
  atomic energy  EATOM  =      9578.92767896
  ---------------------------------------------------
  free energy    TOTEN  =      -629.11009799 eV

  energy without entropy =     -629.07889797  energy(sigma->0) =     -629.09449798
  exchange ACFDT corr.  =        -0.02242095  see jH, gK, PRB 81, 115126


--------------------------------------------------------------------------------------------------------




--------------------------------------- Iteration      1(  15)  ---------------------------------------


    POTLOK:  cpu time    6.3649: real time    6.3716
    SETDIJ:  cpu time    3.1554: real time    3.1721
    TRIAL :  cpu time  603.7886: real time  605.4192
    CORREC:  cpu time    0.0015: real time    0.0015
    CHARGE:  cpu time    1.6551: real time    1.6570
    --------------------------------------------
      LOOP:  cpu time  614.9676: real time  616.6265

 eigenvalue-minimisations  :     0
 total energy-change (2. order) :-0.1432756E-01  (-0.1341057E-01)
 number of electron     248.0000004 magnetization       2.8078460
 augmentation part       11.3667971 magnetization       1.4058467

 DIPCOR: dipole corrections for dipol
 direction  3 min pos     1,
 dipolmoment          -0.000194      0.007116     -0.484243 electrons x Angstroem
 Tr[quadrupol]     -6764.920675

 energy correction for charged system         0.000000 eV
 dipol+quadrupol energy correction            0.006705 eV
 added-field ion interaction          0.000000 eV  (added to PSCEN)


 Free energy of the ion-electron system (eV)
  ---------------------------------------------------
  alpha Z        PSCENC =       106.92901164
  Ewald energy   TEWEN  =     39557.24533884
  -Hartree energ DENC   =    -47794.56621032
  -exchange      EXHF   =       557.89293149
  -V(xc)+E(xc)   XCENC  =       605.06680042
  PAW double counting   =     27437.33741101   -27441.90862943
  entropy T*S    EENTRO =        -0.02999155
  eigenvalues    EBANDS =     -3236.01755814
  atomic energy  EATOM  =      9578.92767896
  ---------------------------------------------------
  free energy    TOTEN  =      -629.12442555 eV

  energy without entropy =     -629.09443400  energy(sigma->0) =     -629.10942977
  exchange ACFDT corr.  =        -0.02096101  see jH, gK, PRB 81, 115126


--------------------------------------------------------------------------------------------------------




--------------------------------------- Iteration      1(  16)  ---------------------------------------


    POTLOK:  cpu time    6.3592: real time    6.3661
    SETDIJ:  cpu time    3.1661: real time    3.1680
    TRIAL :  cpu time  603.8175: real time  604.9641
    CORREC:  cpu time    0.0017: real time    0.0017
    CHARGE:  cpu time    1.6594: real time    1.6623
    --------------------------------------------
      LOOP:  cpu time  615.0062: real time  616.1673

 eigenvalue-minimisations  :     0
 total energy-change (2. order) :-0.1265902E-01  (-0.1178805E-01)
 number of electron     248.0000004 magnetization       2.8254681
 augmentation part       11.3671532 magnetization       1.4187087

 DIPCOR: dipole corrections for dipol
 direction  3 min pos     1,
 dipolmoment          -0.000197      0.007195     -0.489605 electrons x Angstroem
 Tr[quadrupol]     -6764.942550

 energy correction for charged system         0.000000 eV
 dipol+quadrupol energy correction            0.006854 eV
 added-field ion interaction          0.000000 eV  (added to PSCEN)


 Free energy of the ion-electron system (eV)
  ---------------------------------------------------
  alpha Z        PSCENC =       106.92916094
  Ewald energy   TEWEN  =     39557.24533884
  -Hartree energ DENC   =    -47794.92033423
  -exchange      EXHF   =       557.93069077
  -V(xc)+E(xc)   XCENC  =       605.09340165
  PAW double counting   =     27439.10127425   -27443.70433124
  entropy T*S    EENTRO =        -0.02881683
  eigenvalues    EBANDS =     -3235.70997297
  atomic energy  EATOM  =      9578.92767896
  ---------------------------------------------------
  free energy    TOTEN  =      -629.13708457 eV

  energy without entropy =     -629.10826773  energy(sigma->0) =     -629.12267615
  exchange ACFDT corr.  =        -0.01969012  see jH, gK, PRB 81, 115126


--------------------------------------------------------------------------------------------------------




--------------------------------------- Iteration      1(  17)  ---------------------------------------


    POTLOK:  cpu time    6.3390: real time    6.3638
    SETDIJ:  cpu time    3.1619: real time    3.1639
    TRIAL :  cpu time  603.7498: real time  604.9003
    CORREC:  cpu time    0.0032: real time    0.0032
    CHARGE:  cpu time    1.7624: real time    1.7647
    --------------------------------------------
      LOOP:  cpu time  615.0173: real time  616.1988

 eigenvalue-minimisations  :     0
 total energy-change (2. order) :-0.1113424E-01  (-0.1034612E-01)
 number of electron     248.0000004 magnetization       2.8412123
 augmentation part       11.3673297 magnetization       1.4304961

 DIPCOR: dipole corrections for dipol
 direction  3 min pos     1,
 dipolmoment          -0.000199      0.007267     -0.494501 electrons x Angstroem
 Tr[quadrupol]     -6764.961631

 energy correction for charged system         0.000000 eV
 dipol+quadrupol energy correction            0.006992 eV
 added-field ion interaction          0.000000 eV  (added to PSCEN)


 Free energy of the ion-electron system (eV)
  ---------------------------------------------------
  alpha Z        PSCENC =       106.92929872
  Ewald energy   TEWEN  =     39557.24533884
  -Hartree energ DENC   =    -47795.22336869
  -exchange      EXHF   =       557.96576836
  -V(xc)+E(xc)   XCENC  =       605.11810030
  PAW double counting   =     27440.99701738   -27445.62936751
  entropy T*S    EENTRO =        -0.02769052
  eigenvalues    EBANDS =     -3235.44986835
  atomic energy  EATOM  =      9578.92767896
  ---------------------------------------------------
  free energy    TOTEN  =      -629.14821881 eV

  energy without entropy =     -629.12052829  energy(sigma->0) =     -629.13437355
  exchange ACFDT corr.  =        -0.01858784  see jH, gK, PRB 81, 115126


--------------------------------------------------------------------------------------------------------




[...]


 VOLUME and BASIS-vectors are now :
 -----------------------------------------------------------------------------
  energy-cutoff  :      500.00
  volume of cell :     3176.88
      direct lattice vectors                 reciprocal lattice vectors
    12.899300000  0.000000000  0.000000000     0.077523587  0.000783167 -0.000019615
    -0.124863223 12.359869313  0.000000000     0.000000000  0.080907004  0.001188942
     0.007999692 -0.292816663 19.926047015     0.000000000  0.000000000  0.050185569

  length of vectors
    12.899300000 12.360500000 19.928200000     0.077527545  0.080915740  0.050185569


 FORCES acting on ions:
    Electron-Ion                     Ewald-Force                    Non-Local-Force
 -----------------------------------------------------------------------------------------------
   0.344E+01 -.415E+01 0.216E+02   -.370E+01 0.427E+01 -.217E+02   0.254E+00 -.368E+00 0.100E+00
   0.301E+01 -.128E+01 0.231E+02   -.302E+01 0.115E+01 -.231E+02   0.259E-01 -.117E-01 0.596E-01
   0.148E+01 -.137E+01 0.226E+02   -.158E+01 0.154E+01 -.226E+02   0.108E+00 -.281E-01 -.691E-01
   0.585E+01 0.152E+01 0.165E+02   -.611E+01 -.130E+01 -.164E+02   0.177E+00 0.435E-01 -.919E-01
   0.521E+01 0.683E+01 0.117E+02   -.532E+01 -.712E+01 -.118E+02   0.549E-01 -.850E-01 0.936E-01
   0.578E+01 0.725E+01 0.290E+02   -.587E+01 -.773E+01 -.291E+02   0.713E-01 0.358E+00 0.102E+00
   0.832E+00 0.793E+01 0.187E+02   -.844E+00 -.798E+01 -.186E+02   0.437E-01 0.164E+00 -.695E-01
   0.110E+02 0.176E+02 0.346E+01   -.110E+02 -.177E+02 -.384E+01   0.179E+00 0.278E+00 0.375E+00
   0.201E+02 0.442E+02 0.204E+02   -.219E+02 -.475E+02 -.215E+02   0.174E+01 0.315E+01 0.113E+01
   0.116E+02 0.296E+01 0.295E+02   -.120E+02 -.321E+01 -.294E+02   0.314E+00 0.855E-01 -.138E+00
   0.131E+02 0.119E+02 0.320E+02   -.136E+02 -.122E+02 -.322E+02   0.447E+00 0.437E+00 0.149E+00
   0.140E+02 -.334E+02 0.160E+02   -.160E+02 0.362E+02 -.168E+02   0.184E+01 -.265E+01 0.755E+00
   0.709E+01 -.392E+01 0.382E+02   -.729E+01 0.418E+01 -.383E+02   0.179E+00 -.370E+00 0.682E-01
   0.151E+02 -.857E+01 0.364E+02   -.156E+02 0.911E+01 -.366E+02   0.509E+00 -.319E+00 0.229E+00
   0.233E+02 -.134E+01 0.123E+02   -.274E+02 0.137E+01 -.134E+02   0.384E+01 0.387E-01 0.945E+00
   0.914E+01 -.119E+02 0.323E+02   -.984E+01 0.121E+02 -.325E+02   0.647E+00 -.372E+00 0.242E+00
   0.392E+01 -.509E+01 0.314E+02   -.399E+01 0.514E+01 -.315E+02   0.432E-01 -.166E+00 0.839E-01
   0.525E+01 -.761E+01 0.359E+02   -.573E+01 0.776E+01 -.360E+02   0.474E+00 -.536E-01 0.503E-01
   0.375E+01 -.100E+02 0.216E+02   -.416E+01 0.106E+02 -.215E+02   0.284E+00 -.387E+00 -.132E+00
   -.448E+01 0.339E+01 0.138E+02   0.462E+01 -.341E+01 -.137E+02   -.189E+00 -.124E+00 -.757E-01
   0.146E+01 0.775E+01 0.242E+02   -.183E+01 -.794E+01 -.243E+02   0.361E+00 0.149E+00 0.106E+00
   -.330E+01 -.231E+01 0.232E+02   0.362E+01 0.270E+01 -.233E+02   -.257E+00 -.295E+00 0.113E+00
   -.365E+01 0.699E+01 0.203E+02   0.385E+01 -.701E+01 -.204E+02   -.265E+00 0.250E+00 0.111E+00
   -.664E+01 0.152E+02 0.212E+02   0.691E+01 -.158E+02 -.210E+02   -.191E+00 0.316E+00 -.165E+00
   0.273E+02 0.411E+02 0.159E+02   -.293E+02 -.443E+02 -.170E+02   0.184E+01 0.297E+01 0.112E+01
   0.180E+01 0.176E+02 0.253E+02   -.188E+01 -.180E+02 -.254E+02   0.164E-01 0.459E+00 0.103E+00
   -.145E+02 0.103E+02 0.326E+02   0.151E+02 -.104E+02 -.328E+02   -.544E+00 0.340E+00 0.248E+00
   -.379E+02 -.331E+01 0.128E+02   0.414E+02 0.297E+01 -.136E+02   -.315E+01 0.236E+00 0.769E+00
   -.111E+02 0.186E+02 0.109E+02   0.131E+02 -.222E+02 -.120E+02   -.192E+01 0.336E+01 0.960E+00
   -.335E+01 -.388E+02 0.950E+01   0.561E+01 0.422E+02 -.111E+02   -.206E+01 -.321E+01 0.155E+01
   -.506E+01 -.581E+01 -.601E+01   0.525E+01 0.617E+01 0.526E+01   -.222E+00 -.437E+00 0.701E+00
   -.430E+01 -.979E+01 0.244E+02   0.425E+01 0.104E+02 -.245E+02   0.142E+00 -.751E+00 0.165E+00
   -.310E+02 -.236E+02 0.777E+01   0.328E+02 0.273E+02 -.933E+01   -.175E+01 -.328E+01 0.149E+01
   -.168E+01 0.120E+01 0.658E+01   0.191E+01 -.789E+00 -.674E+01   -.210E+00 -.242E+00 0.143E+00
   0.245E+01 -.193E+01 0.263E+02   -.240E+01 0.193E+01 -.263E+02   -.395E-01 -.951E-01 0.288E-01
   -.228E+01 0.328E+01 0.211E+02   0.243E+01 -.342E+01 -.210E+02   -.670E-01 -.101E-01 -.762E-01
   -.229E+01 0.305E+01 0.220E+02   0.239E+01 -.282E+01 -.221E+02   -.891E-01 -.231E-01 0.757E-01
   -.152E+01 0.314E+01 0.261E+02   0.151E+01 -.310E+01 -.261E+02   -.164E-01 0.741E-01 0.228E-01
   -.381E+00 0.304E+01 0.286E+02   0.449E+00 -.327E+01 -.286E+02   -.572E-01 0.683E-01 0.655E-02
   -.587E+01 0.678E+01 0.341E+02   0.628E+01 -.691E+01 -.341E+02   -.407E+00 0.482E-01 0.280E-01
   -.435E+01 0.599E+01 0.295E+02   0.444E+01 -.601E+01 -.295E+02   -.825E-01 0.107E+00 0.767E-01
   -.768E+00 0.508E+01 0.318E+02   0.790E+00 -.508E+01 -.318E+02   -.404E-02 0.156E+00 0.565E-01
   -.102E+01 0.363E+01 0.338E+02   0.113E+01 -.383E+01 -.338E+02   -.409E-01 0.678E-01 0.179E-02
   -.133E+02 0.310E+01 0.328E+02   0.139E+02 -.369E+01 -.330E+02   -.568E+00 0.392E+00 0.226E+00
   -.647E+01 0.207E+01 0.365E+02   0.668E+01 -.241E+01 -.365E+02   -.251E+00 0.422E+00 0.778E-01
   0.420E+01 -.711E+00 0.320E+02   -.436E+01 0.699E+00 -.321E+02   0.199E+00 0.562E-01 0.438E-01
   -.132E+01 -.763E+00 0.318E+02   0.151E+01 0.715E+00 -.318E+02   -.285E+00 -.250E-01 0.455E-01
   -.660E+01 -.110E+02 0.290E+02   0.727E+01 0.114E+02 -.292E+02   -.740E+00 -.418E+00 0.203E+00
   -.679E+01 -.446E+01 0.275E+02   0.729E+01 0.458E+01 -.273E+02   -.366E+00 -.355E-01 -.116E+00
   0.291E+01 -.460E+01 0.347E+02   -.292E+01 0.482E+01 -.348E+02   0.166E-01 -.443E-01 0.127E-01
   0.210E+01 -.464E+01 0.326E+02   -.200E+01 0.464E+01 -.326E+02   -.672E-01 -.150E+00 0.605E-01
   0.966E+00 -.393E+01 0.161E+02   -.819E+00 0.397E+01 -.160E+02   -.982E-01 -.211E+00 -.487E-01
   -.166E+01 -.644E+01 0.280E+02   0.183E+01 0.698E+01 -.281E+02   -.197E+00 -.362E+00 0.129E+00
   0.140E+01 -.204E+01 0.302E+02   -.142E+01 0.227E+01 -.302E+02   0.309E-01 -.956E-01 0.226E-01
   -.274E+02 -.159E+02 -.165E+02   0.475E+02 0.170E+02 0.194E+02   -.189E+02 -.974E+00 -.283E+01
   -.533E+00 -.296E+02 -.281E+02   -.877E+01 0.474E+02 0.312E+02   0.877E+01 -.166E+02 -.307E+01
   0.602E+02 -.810E+01 -.546E+02   -.800E+02 0.659E+01 0.579E+02   0.184E+02 0.131E+01 -.277E+01
   -.374E+02 0.487E+02 -.567E+02   0.463E+02 -.667E+02 0.601E+02   -.829E+01 0.166E+02 -.269E+01
   0.188E+02 0.243E+02 -.743E+03   -.247E+02 -.349E+02 0.739E+03   0.355E+01 0.656E+01 0.368E+01
   -.422E+02 -.729E+02 -.388E+03   0.454E+02 0.786E+02 0.384E+03   -.415E+00 -.785E+00 0.433E+01
 -----------------------------------------------------------------------------------------------
   -.260E+01 -.513E+01 -.844E+01   0.455E-12 -.568E-13 -.284E-12   0.280E+01 0.544E+01 0.875E+01
 
 
 POSITION                                       TOTAL-FORCE (eV/Angst)
 -----------------------------------------------------------------------------------
      2.85351     -0.10920      9.88078         0.007916     -0.266404      0.004126
      0.70751      1.11572      9.82558         0.020204     -0.149544      0.005504
      1.42027     -0.11810      9.83310         0.015661      0.147627      0.003626
      3.57106      1.13212      9.92202        -0.070260      0.259809      0.011177
      2.86563      2.38917      9.96059        -0.058804     -0.382171     -0.002503
      0.68899      3.58184      9.85043        -0.005806     -0.102395      0.019241
      1.42530      2.35962      9.87767         0.029518      0.129227      0.012233
      3.58068      3.64143     10.09575         0.171140      0.169613      0.003474
      2.80063      4.88148     10.10478         0.026996      0.039115      0.047999
      0.63635      6.05549      9.87571        -0.029011     -0.153861      0.014994
      1.37971      4.83053      9.91771         0.006921      0.117433      0.044510
      2.73353      7.29654     10.10999        -0.067266      0.037427      0.010182
      0.59889      8.53280      9.82292        -0.009926     -0.124046      0.021848
      1.32514      7.30487      9.90535         0.052174      0.196900      0.062993
      3.43433      8.55725     10.11413        -0.055856      0.077307     -0.042169
      2.72070      9.77305      9.92516        -0.018762     -0.188268      0.063791
      0.58169     11.00417      9.80027        -0.020562     -0.123970      0.020894
      1.29764      9.77079      9.83090         0.019615      0.089887      0.017775
      3.44054     11.01228      9.92284        -0.110753      0.234654      0.009595
      7.02770     12.18643      9.92860        -0.054677     -0.142747      0.004552
      5.00084      1.10260      9.92544         0.015116     -0.024700      0.017931
      5.71989     -0.14006      9.92466         0.051629      0.075816      0.014170
      7.86871      1.06771      9.89033        -0.072930      0.249218      0.013618
      7.15426      2.30605      9.93526         0.069730     -0.256010      0.008617
      5.04333      3.58474     10.13704        -0.049270     -0.017680      0.036405
      5.72368      2.33253      9.97667        -0.064190      0.054926      0.064233
      7.87050      3.54075      9.93836         0.031546      0.279560      0.097221
      7.14649      4.75522     10.13450         0.186851     -0.101829      0.002096
      7.86494      6.00595     10.11707        -0.027468     -0.034299     -0.028378
      7.80111      8.44121     10.10128         0.090523      0.004019      0.041884
      7.01354      9.67468     10.09373        -0.043711     -0.092031     -0.020119
      4.87194     10.99258      9.96542         0.106042     -0.208649      0.107771
      5.55448      9.74003     10.12016        -0.064800      0.210494      0.023852
      7.73393     10.93595      9.96662         0.012656      0.159808     -0.007978
     11.45086     -0.14150      9.79354         0.016679     -0.104711      0.013378
      9.29892      1.07596      9.84254         0.083291     -0.148293      0.000078
      9.88867     12.20228      9.82986        -0.004200      0.202176      0.008324
     12.16919      1.09919      9.79476        -0.033968      0.121445      0.008911
     11.44446      2.32734      9.79287         0.009967     -0.164492      0.007874
      9.29482      3.54509      9.84429        -0.012945     -0.074102      0.011133
     10.01336      2.31396      9.81194         0.002200      0.088495      0.010456
     12.15428      3.56864      9.80085         0.015003      0.163921      0.017234
     11.42314      4.79539      9.80376         0.066171     -0.129688      0.013812
      9.26914      6.00654      9.91523         0.011931     -0.172874      0.030998
      9.99718      4.78081      9.83335        -0.055365      0.109778      0.025605
     12.11477      6.04164      9.81900         0.044523      0.044374      0.010129
     11.37923      7.27269      9.81818        -0.118465     -0.071205      0.009332
      9.22076      8.48780      9.91717        -0.111892     -0.079679      0.078961
      9.95797      7.25927      9.87861         0.116229      0.086213      0.011551
     12.07078      8.51918      9.79701         0.002485      0.171816      0.011549
     11.34128      9.74792      9.79450         0.030852     -0.159812      0.019284
      9.17053     10.95948      9.88223         0.047663     -0.185594      0.000802
      9.90966      9.73571      9.84890        -0.037756      0.160837      0.018520
     12.05013     10.99044      9.78484         0.009458      0.138062      0.017226
      3.39975      6.10737     10.32986        -0.447586      0.038049     -0.143720
      5.78939      4.72523     10.36555         0.221657     -0.312444     -0.154522
      7.20884      7.20841     10.33392         0.141531     -0.080743      0.279946
      4.79905      8.60043     10.34180        -0.120389     -0.038969      0.399310
      4.83934      5.86639     11.62945        -0.882103     -1.464142     -0.257121
      5.77793      7.50050     11.71574         0.914841      1.697343     -1.154215
 -----------------------------------------------------------------------------------
    total drift:                                0.005564      0.008558     -0.002666


--------------------------------------------------------------------------------------------------------



  FREE ENERGIE OF THE ION-ELECTRON SYSTEM (eV)
  ---------------------------------------------------
  free  energy   TOTEN  =      -629.23120329 eV

  energy  without entropy=     -629.21333241  energy(sigma->0) =     -629.22226785
 


--------------------------------------------------------------------------------------------------------


    POTLOK:  cpu time    9.4665: real time    9.4894


--------------------------------------------------------------------------------------------------------


 stress matrix after NEB project (eV)
    -43.47395      4.24246      0.06543
      4.24247    -43.23294      0.38883
      0.06530      0.38860     -2.73413
  FORCES: max atom, RMS     2.247247    0.414741
  FORCE total and by dimension    3.212573    1.697343
  Stress total and by dimension   61.667286   43.473948
 writing wavefunctions
     LOOP+:  cpu time35768.0752: real time35847.9837
    4ORBIT:  cpu time    0.0000: real time    0.0000
 


 total charge     
 
# of ion       s       p       d       tot
------------------------------------------
    1        0.863   1.763   0.000   2.625
    2        0.863   1.758   0.000   2.621
    3        0.864   1.770   0.000   2.634
    4        0.861   1.759   0.000   2.619
    5        0.857   1.733   0.000   2.590
    6        0.864   1.766   0.000   2.630
    7        0.861   1.757   0.000   2.618
    8        0.845   1.734   0.000   2.579
    9        0.854   1.703   0.000   2.557
   10        0.868   1.765   0.000   2.633
   11        0.863   1.771   0.000   2.635
   12        0.857   1.739   0.000   2.596
   13        0.865   1.778   0.000   2.643
   14        0.867   1.777   0.000   2.644
   15        0.856   1.740   0.000   2.596
   16        0.866   1.775   0.000   2.641
   17        0.866   1.767   0.000   2.632
   18        0.866   1.781   0.000   2.646
   19        0.865   1.761   0.000   2.626
   20        0.862   1.758   0.000   2.620
   21        0.864   1.762   0.000   2.626
   22        0.864   1.764   0.000   2.627
   23        0.863   1.767   0.000   2.630
   24        0.866   1.762   0.000   2.628
   25        0.854   1.706   0.000   2.560
   26        0.865   1.770   0.000   2.635
   27        0.866   1.776   0.000   2.642
   28        0.857   1.738   0.000   2.595
   29        0.856   1.742   0.000   2.598
   30        0.852   1.707   0.000   2.560
   31        0.846   1.727   0.000   2.573
   32        0.865   1.770   0.000   2.635
   33        0.853   1.711   0.000   2.564
   34        0.857   1.736   0.000   2.593
   35        0.863   1.763   0.000   2.626
   36        0.865   1.769   0.000   2.634
   37        0.863   1.760   0.000   2.623
   38        0.863   1.763   0.000   2.626
   39        0.866   1.767   0.000   2.633
   40        0.866   1.779   0.000   2.645
   41        0.865   1.768   0.000   2.633
   42        0.864   1.765   0.000   2.629
   43        0.867   1.770   0.000   2.637
   44        0.868   1.777   0.000   2.644
   45        0.865   1.782   0.000   2.647
   46        0.865   1.776   0.000   2.641
   47        0.865   1.774   0.000   2.639
   48        0.864   1.773   0.000   2.636
   49        0.866   1.765   0.000   2.632
   50        0.866   1.770   0.000   2.636
   51        0.864   1.765   0.000   2.629
   52        0.861   1.756   0.000   2.618
   53        0.864   1.768   0.000   2.632
   54        0.865   1.768   0.000   2.634
   55        1.228   2.677   0.000   3.905
   56        1.228   2.685   0.000   3.913
   57        1.232   2.679   0.000   3.911
   58        1.232   2.684   0.000   3.916
   59        0.479   0.439   6.418   7.336
   60        0.507   0.554   2.930   3.991
--------------------------------------------------
tot         52.461 106.688   9.348 168.497
 


 magnetization (x)
 
# of ion       s       p       d       tot
------------------------------------------
    1       -0.000  -0.002   0.000  -0.002
    2       -0.000  -0.004   0.000  -0.004
    3        0.000   0.006   0.000   0.006
    4        0.001   0.009   0.000   0.010
    5       -0.001  -0.010   0.000  -0.010
    6       -0.000  -0.003   0.000  -0.003
    7        0.001   0.008   0.000   0.008
    8        0.002   0.028   0.000   0.030
    9       -0.001  -0.008   0.000  -0.009
   10       -0.000  -0.005   0.000  -0.006
   11        0.001   0.006   0.000   0.007
   12        0.000  -0.002   0.000  -0.002
   13        0.000  -0.000   0.000  -0.000
   14        0.001   0.003   0.000   0.004
   15        0.000   0.001   0.000   0.002
   16       -0.000  -0.002   0.000  -0.002
   17       -0.000  -0.003   0.000  -0.003
   18        0.000   0.004   0.000   0.005
   19        0.000  -0.001   0.000  -0.001
   20       -0.000   0.000   0.000   0.000
   21       -0.000  -0.004   0.000  -0.004
   22        0.000   0.002   0.000   0.002
   23        0.000   0.004   0.000   0.004
   24       -0.000  -0.005   0.000  -0.006
   25       -0.001  -0.008   0.000  -0.009
   26        0.001   0.005   0.000   0.006
   27        0.001   0.004   0.000   0.005
   28       -0.000  -0.004   0.000  -0.004
   29        0.000   0.005   0.000   0.005
   30       -0.001  -0.005   0.000  -0.006
   31       -0.000   0.007   0.000   0.007
   32       -0.000  -0.001   0.000  -0.001
   33       -0.001  -0.004   0.000  -0.005
   34       -0.000  -0.001   0.000  -0.001
   35       -0.000  -0.001   0.000  -0.001
   36       -0.000  -0.001   0.000  -0.001
   37        0.000   0.001   0.000   0.001
   38        0.000   0.003   0.000   0.004
   39       -0.000  -0.003   0.000  -0.003
   40       -0.000  -0.001   0.000  -0.001
   41        0.000   0.002   0.000   0.002
   42        0.000   0.002   0.000   0.003
   43       -0.000  -0.003   0.000  -0.003
   44       -0.000  -0.003   0.000  -0.003
   45        0.000   0.005   0.000   0.005
   46        0.000   0.005   0.000   0.005
   47       -0.000  -0.001   0.000  -0.002
   48       -0.000   0.001   0.000   0.000
   49        0.000   0.001   0.000   0.001
   50        0.000   0.002   0.000   0.002
   51       -0.000  -0.002   0.000  -0.002
   52       -0.000   0.000   0.000   0.000
   53        0.000   0.002   0.000   0.002
   54        0.000   0.002   0.000   0.002
   55        0.009   0.063   0.000   0.072
   56        0.010   0.065   0.000   0.074
   57        0.006   0.040   0.000   0.046
   58        0.006   0.039   0.000   0.045
   59        0.093   0.084   2.628   2.806
   60        0.030   0.069  -1.034  -0.935
--------------------------------------------------
tot          0.156   0.393   1.594   2.143
 

 total amount of memory used by VASP MPI-rank0   323610. kBytes
=======================================================================

   base      :      30000. kBytes
   nonl-proj :      10720. kBytes
   fftplans  :      26523. kBytes
   grid      :      69087. kBytes
   one-center:        124. kBytes
   HF        :         23. kBytes
   nonlr-proj:      30893. kBytes
   wavefun   :     156240. kBytes
 
  
  
 General timing and accounting informations for this job:
 ========================================================
  
                  Total CPU time used (sec):    35830.227
                            User time (sec):    35809.895
                          System time (sec):       20.332
                         Elapsed time (sec):    35917.160
  
                   Maximum memory used (kb):      577428.
                   Average memory used (kb):           0.
  
                          Minor page faults:      1480805
                          Major page faults:          209
                 Voluntary context switches:        68813
