 vasp.5.4.4.18Apr17-6-g9f103f2a35 (build Feb 25 2019 10:51:38) complex          
  
 executed on             LinuxIFC date 2021.08.09  11:14:56
 running on   32 total cores
 distrk:  each k-point on   32 cores,    1 groups
 distr:  one band on NCORES_PER_BAND=  32 cores,    1 groups


--------------------------------------------------------------------------------------------------------


 INCAR:
 POTCAR:    PAW_PBE C 08Apr2002                   
 POTCAR:    PAW_PBE N 08Apr2002                   
 POTCAR:    PAW_PBE Fe 06Sep2000                  
 POTCAR:    PAW_PBE Ti 08Apr2002                  

 ----------------------------------------------------------------------------- 
|                                                                             |
|           W    W    AA    RRRRR   N    N  II  N    N   GGGG   !!!           |
|           W    W   A  A   R    R  NN   N  II  NN   N  G    G  !!!           |
|           W    W  A    A  R    R  N N  N  II  N N  N  G       !!!           |
|           W WW W  AAAAAA  RRRRR   N  N N  II  N  N N  G  GGG   !            |
|           WW  WW  A    A  R   R   N   NN  II  N   NN  G    G                |
|           W    W  A    A  R    R  N    N  II  N    N   GGGG   !!!           |
|                                                                             |
|      For optimal performance we recommend to set                            |
|        NCORE= 4 - approx SQRT( number of cores)                             |
|      NCORE specifies how many cores store one orbital (NPAR=cpu/NCORE).     |
|      This setting can  greatly improve the performance of VASP for DFT.     |
|      The default,   NCORE=1            might be grossly inefficient         |
|      on modern multi-core architectures or massively parallel machines.     |
|      Do your own testing !!!!                                               |
|      Unfortunately you need to use the default for GW and RPA calculations. |
|      (for HF NCORE is supported but not extensively tested yet)             |
|                                                                             |
 ----------------------------------------------------------------------------- 

 POTCAR:    PAW_PBE C 08Apr2002                   
   VRHFIN =C: s2p2                                                              
   LEXCH  = PE                                                                  
   EATOM  =   147.1560 eV,   10.8157 Ry                                         
                                                                                
   TITEL  = PAW_PBE C 08Apr2002                                                 
   LULTRA =        F    use ultrasoft PP ?                                      
   IUNSCR =        1    unscreen: 0-lin 1-nonlin 2-no                           
   RPACOR =    1.200    partial core radius                                     
   POMASS =   12.011; ZVAL   =    4.000    mass and valenz                      
   RCORE  =    1.500    outmost cutoff radius                                   
   RWIGS  =    1.630; RWIGS  =    0.863    wigner-seitz radius (au A)           
   ENMAX  =  400.000; ENMIN  =  300.000 eV                                      
   ICORE  =        2    local potential                                         
   LCOR   =        T    correct aug charges                                     
   LPAW   =        T    paw PP                                                  
   EAUG   =  644.873                                                            
   DEXC   =    0.000                                                            
   RMAX   =    1.529    core radius for proj-oper                               
   RAUG   =    1.300    factor for augmentation sphere                          
   RDEP   =    1.501    radius for radial grids                                 
   RDEPT  =    1.300    core radius for aug-charge                              
                                                                                
   Atomic configuration                                                         
    4 entries                                                                   
     n  l   j            E        occ.                                          
     1  0  0.50      -273.3789   2.0000                                         
     2  0  0.50       -13.7508   2.0000                                         
     2  1  0.50        -5.2854   2.0000                                         
     3  2  1.50        -5.4423   0.0000                                         
   Description                                                                  
     l       E           TYP  RCUT    TYP  RCUT                                 
     0    -13.7508458     23  1.200                                             
     0     -8.2022199     23  1.200                                             
     1     -5.2854383     23  1.500                                             
     1     34.0145650     23  1.500                                             
     2     -5.4423304      7  1.500                                             
  local pseudopotential read in
  partial core-charges read in
  partial kinetic energy density read in
  atomic valenz-charges read in
  non local Contribution for L=           0  read in
    real space projection operators read in
  non local Contribution for L=           0  read in
    real space projection operators read in
  non local Contribution for L=           1  read in
    real space projection operators read in
  non local Contribution for L=           1  read in
    real space projection operators read in
    PAW grid and wavefunctions read in
 
   number of l-projection  operators is LMAX  =           4
   number of lm-projection operators is LMMAX =           8
 
 POTCAR:    PAW_PBE N 08Apr2002                   
   VRHFIN =N: s2p3                                                              
   LEXCH  = PE                                                                  
   EATOM  =   264.5486 eV,   19.4438 Ry                                         
                                                                                
   TITEL  = PAW_PBE N 08Apr2002                                                 
   LULTRA =        F    use ultrasoft PP ?                                      
   IUNSCR =        1    unscreen: 0-lin 1-nonlin 2-no                           
   RPACOR =    1.200    partial core radius                                     
   POMASS =   14.001; ZVAL   =    5.000    mass and valenz                      
   RCORE  =    1.500    outmost cutoff radius                                   
   RWIGS  =    1.400; RWIGS  =    0.741    wigner-seitz radius (au A)           
   ENMAX  =  400.000; ENMIN  =  300.000 eV                                      
   ICORE  =        2    local potential                                         
   LCOR   =        T    correct aug charges                                     
   LPAW   =        T    paw PP                                                  
   EAUG   =  627.112                                                            
   DEXC   =    0.000                                                            
   RMAX   =    1.529    core radius for proj-oper                               
   RAUG   =    1.300    factor for augmentation sphere                          
   RDEP   =    1.514    radius for radial grids                                 
   RDEPT  =    1.338    core radius for aug-charge                              
                                                                                
   Atomic configuration                                                         
    4 entries                                                                   
     n  l   j            E        occ.                                          
     1  0  0.50      -384.7179   2.0000                                         
     2  0  0.50       -18.5828   2.0000                                         
     2  1  0.50        -7.0898   3.0000                                         
     3  2  1.50        -6.8029   0.0000                                         
   Description                                                                  
     l       E           TYP  RCUT    TYP  RCUT                                 
     0    -18.5828119     23  1.200                                             
     0    -13.5018863     23  1.200                                             
     1     -7.0897853     23  1.500                                             
     1      9.5240782     23  1.500                                             
     2     -6.8029130      7  1.500                                             
  local pseudopotential read in
  partial core-charges read in
  partial kinetic energy density read in
  atomic valenz-charges read in
  non local Contribution for L=           0  read in
    real space projection operators read in
  non local Contribution for L=           0  read in
    real space projection operators read in
  non local Contribution for L=           1  read in
    real space projection operators read in
  non local Contribution for L=           1  read in
    real space projection operators read in
    PAW grid and wavefunctions read in
 
   number of l-projection  operators is LMAX  =           4
   number of lm-projection operators is LMMAX =           8
 
 POTCAR:    PAW_PBE Fe 06Sep2000                  
   VRHFIN =Fe:  d7 s1                                                           
   LEXCH  = PE                                                                  
   EATOM  =   594.3153 eV,   43.6809 Ry                                         
                                                                                
   TITEL  = PAW_PBE Fe 06Sep2000                                                
   LULTRA =        F    use ultrasoft PP ?                                      
   IUNSCR =        1    unscreen: 0-lin 1-nonlin 2-no                           
   RPACOR =    2.000    partial core radius                                     
   POMASS =   55.847; ZVAL   =    8.000    mass and valenz                      
   RCORE  =    2.300    outmost cutoff radius                                   
   RWIGS  =    2.460; RWIGS  =    1.302    wigner-seitz radius (au A)           
   ENMAX  =  267.882; ENMIN  =  200.911 eV                                      
   RCLOC  =    1.701    cutoff for local pot                                    
   LCOR   =        T    correct aug charges                                     
   LPAW   =        T    paw PP                                                  
   EAUG   =  511.368                                                            
   DEXC   =    0.000                                                            
   RMAX   =    2.356    core radius for proj-oper                               
   RAUG   =    1.300    factor for augmentation sphere                          
   RDEP   =    2.442    radius for radial grids                                 
   RDEPT  =    1.890    core radius for aug-charge                              
                                                                                
   Atomic configuration                                                         
    9 entries                                                                   
     n  l   j            E        occ.                                          
     1  0  0.50     -6993.8440   2.0000                                         
     2  0  0.50      -814.6047   2.0000                                         
     2  1  1.50      -693.3689   6.0000                                         
     3  0  0.50       -89.4732   2.0000                                         
     3  1  1.50       -55.6373   6.0000                                         
     3  2  2.50        -3.8151   7.0000                                         
     4  0  0.50        -4.2551   1.0000                                         
     4  1  1.50        -3.4015   0.0000                                         
     4  3  2.50        -1.3606   0.0000                                         
   Description                                                                  
     l       E           TYP  RCUT    TYP  RCUT                                 
     2     -3.8151135     23  2.300                                             
     2     -5.1756961     23  2.300                                             
     0     -4.2550963     23  2.300                                             
     0      7.2035603     23  2.300                                             
     1     -2.7211652     23  2.300                                             
     1     18.4316424     23  2.300                                             
  local pseudopotential read in
  partial core-charges read in
  partial kinetic energy density read in
  atomic valenz-charges read in
  non local Contribution for L=           2  read in
    real space projection operators read in
  non local Contribution for L=           2  read in
    real space projection operators read in
  non local Contribution for L=           0  read in
    real space projection operators read in
  non local Contribution for L=           0  read in
    real space projection operators read in
  non local Contribution for L=           1  read in
    real space projection operators read in
  non local Contribution for L=           1  read in
    real space projection operators read in
    PAW grid and wavefunctions read in
 
   number of l-projection  operators is LMAX  =           6
   number of lm-projection operators is LMMAX =          18
 
 POTCAR:    PAW_PBE Ti 08Apr2002                  
   VRHFIN =Ti: d3 s1                                                            
   LEXCH  = PE                                                                  
   EATOM  =    94.7928 eV,    6.9671 Ry                                         
                                                                                
   TITEL  = PAW_PBE Ti 08Apr2002                                                
   LULTRA =        F    use ultrasoft PP ?                                      
   IUNSCR =        1    unscreen: 0-lin 1-nonlin 2-no                           
   RPACOR =    2.200    partial core radius                                     
   POMASS =   47.880; ZVAL   =    4.000    mass and valenz                      
   RCORE  =    2.800    outmost cutoff radius                                   
   RWIGS  =    2.500; RWIGS  =    1.323    wigner-seitz radius (au A)           
   ENMAX  =  178.330; ENMIN  =  133.747 eV                                      
   RCLOC  =    2.215    cutoff for local pot                                    
   LCOR   =        T    correct aug charges                                     
   LPAW   =        T    paw PP                                                  
   EAUG   =  328.883                                                            
   DEXC   =    0.000                                                            
   RMAX   =    2.868    core radius for proj-oper                               
   RAUG   =    1.300    factor for augmentation sphere                          
   RDEP   =    2.885    radius for radial grids                                 
   RDEPT  =    2.320    core radius for aug-charge                              
                                                                                
   Atomic configuration                                                         
    9 entries                                                                   
     n  l   j            E        occ.                                          
     1  0  0.50     -4865.3608   2.0000                                         
     2  0  0.50      -533.1367   2.0000                                         
     2  1  1.50      -440.5031   6.0000                                         
     3  0  0.50       -59.3186   2.0000                                         
     3  1  1.50       -35.7012   6.0000                                         
     3  2  2.50        -1.9157   3.0000                                         
     4  0  0.50        -3.7291   1.0000                                         
     4  1  1.50        -4.0817   0.0000                                         
     4  3  2.50        -1.3606   0.0000                                         
   Description                                                                  
     l       E           TYP  RCUT    TYP  RCUT                                 
     2     -1.9156924     23  2.800                                             
     2     -0.4062961     23  2.800                                             
     0     -3.7290832     23  2.800                                             
     0     20.4087390     23  2.800                                             
     1     -5.4423304     23  2.800                                             
  local pseudopotential read in
  partial core-charges read in
  partial kinetic energy density read in
  atomic valenz-charges read in
  non local Contribution for L=           2  read in
    real space projection operators read in
  non local Contribution for L=           2  read in
    real space projection operators read in
  non local Contribution for L=           0  read in
    real space projection operators read in
  non local Contribution for L=           0  read in
    real space projection operators read in
  non local Contribution for L=           1  read in
    real space projection operators read in
    PAW grid and wavefunctions read in
 
   number of l-projection  operators is LMAX  =           5
   number of lm-projection operators is LMMAX =          15
 

 ----------------------------------------------------------------------------- 
|                                                                             |
|  ADVICE TO THIS USER RUNNING 'VASP/VAMP'   (HEAR YOUR MASTER'S VOICE ...):  |
|                                                                             |
|      You have a (more or less) 'large supercell' and for larger cells       |
|      it might be more efficient to use real space projection opertators     |
|      So try LREAL= Auto  in the INCAR   file.                               |
|      Mind:          For very  accurate calculation you might also keep the  |
|      reciprocal projection scheme          (i.e. LREAL=.FALSE.)             |
|                                                                             |
 ----------------------------------------------------------------------------- 

  PAW_PBE C 08Apr2002                   :
 energy of atom  1       EATOM= -147.1560
 kinetic energy error for atom=    0.0076 (will be added to EATOM!!)
  PAW_PBE N 08Apr2002                   :
 energy of atom  2       EATOM= -264.5486
 kinetic energy error for atom=    0.0138 (will be added to EATOM!!)
  PAW_PBE Fe 06Sep2000                  :
 energy of atom  3       EATOM= -594.3153
 kinetic energy error for atom=    0.0026 (will be added to EATOM!!)
  PAW_PBE Ti 08Apr2002                  :
 energy of atom  4       EATOM=  -94.7928
 kinetic energy error for atom=    0.0002 (will be added to EATOM!!)
 
 
 POSCAR:  C  N Fe Ti                             
  positions in cartesian coordinates
  No initial velocities read in
 exchange correlation table for  LEXCH =        8
   RHO(1)=    0.500       N(1)  =     2000
   RHO(2)=  100.500       N(2)  =     4000

 VTST: version 3.2, (02/03/18)

 CHAIN: initializing optimizer
 
 OPT: Using VASP Conjugate-Gradient optimizer
 CHAIN: Read ICHAIN            0
 
 POSCAR:  C  N Fe Ti                             
  positions in cartesian coordinates
  No initial velocities read in
 


--------------------------------------------------------------------------------------------------------


 ion  position               nearest neighbor table
   1  0.225  0.002  0.503-   4 1.45   3 1.45  18 1.46
   2  0.057  0.101  0.501-   7 1.43   3 1.43  33 1.44
   3  0.113  0.001  0.502-   2 1.43  16 1.43   1 1.45
   4  0.280  0.104  0.504-   1 1.45   5 1.46  20 1.46
   5  0.222  0.205  0.506-  53 1.39   7 1.45   4 1.46
   6  0.053  0.300  0.500-  10 1.41  37 1.43   7 1.43
   7  0.111  0.202  0.503-   2 1.43   6 1.43   5 1.45
   8  0.213  0.401  0.510-  53 1.38  10 1.41  11 1.45
   9  0.051  0.501  0.499-  14 1.41  41 1.42  10 1.42
  10  0.105  0.401  0.502-   8 1.41   6 1.41   9 1.42
  11  0.267  0.503  0.520-  55 1.38  12 1.43   8 1.45  58 2.43
  12  0.212  0.602  0.509-  54 1.39  14 1.42  11 1.43  58 2.53
  13  0.052  0.702  0.499-  14 1.41  45 1.43  17 1.43
  14  0.104  0.601  0.500-   9 1.41  13 1.41  12 1.42
  15  0.220  0.799  0.505-  54 1.39  18 1.44  17 1.44
  16  0.056  0.901  0.501-  17 1.42   3 1.43  49 1.44
  17  0.110  0.801  0.502-  16 1.42  13 1.43  15 1.44
  18  0.280  0.898  0.503-  15 1.44   1 1.46  28 1.47
  19  0.557  0.998  0.498-  29 1.43  22 1.43  21 1.44
  20  0.393  0.103  0.502-  50 1.43   4 1.46  21 1.47
  21  0.446  0.999  0.500-  19 1.44  28 1.46  20 1.47
  22  0.614  0.098  0.497-  23 1.41  19 1.43  31 1.44
  23  0.560  0.198  0.497-  22 1.41  50 1.42  24 1.45
  24  0.616  0.300  0.495-  35 1.42  51 1.43  23 1.45
  25  0.611  0.500  0.492-  56 1.40  51 1.43  39 1.45
  26  0.615  0.697  0.492-  56 1.38  43 1.42  27 1.45
  27  0.558  0.798  0.495-  29 1.42  52 1.43  26 1.45
  28  0.392  0.895  0.500-  52 1.44  21 1.46  18 1.47
  29  0.613  0.898  0.497-  27 1.42  19 1.43  47 1.44
  30  0.890  0.000  0.498-  49 1.42  33 1.42  32 1.44
  31  0.724  0.099  0.497-  32 1.42  36 1.42  22 1.44
  32  0.780  1.000  0.497-  31 1.42  47 1.42  30 1.44
  33  0.946  0.100  0.499-  30 1.42  34 1.43   2 1.44
  34  0.889  0.199  0.497-  37 1.42  33 1.43  36 1.43
  35  0.725  0.299  0.495-  40 1.42  24 1.42  36 1.43
  36  0.780  0.199  0.496-  31 1.42  35 1.43  34 1.43
  37  0.943  0.300  0.497-  34 1.42   6 1.43  38 1.43
  38  0.888  0.400  0.496-  41 1.42  40 1.43  37 1.43
  39  0.722  0.500  0.493-  44 1.42  40 1.43  25 1.45
  40  0.778  0.400  0.494-  35 1.42  39 1.43  38 1.43
  41  0.942  0.500  0.496-  38 1.42   9 1.42  42 1.42
  42  0.888  0.600  0.495-  41 1.42  44 1.43  45 1.43
  43  0.724  0.700  0.494-  44 1.42  26 1.42  48 1.43
  44  0.778  0.600  0.493-  43 1.42  39 1.42  42 1.43
  45  0.943  0.701  0.497-  46 1.42  13 1.43  42 1.43
  46  0.889  0.801  0.497-  45 1.42  49 1.43  48 1.43
  47  0.724  0.900  0.497-  48 1.42  32 1.42  29 1.44
  48  0.779  0.801  0.496-  47 1.42  43 1.43  46 1.43
  49  0.946  0.901  0.499-  30 1.42  46 1.43  16 1.44
  50  0.451  0.202  0.501-  23 1.42  20 1.43  57 1.96
  51  0.557  0.399  0.495-  24 1.43  25 1.43  57 1.96
  52  0.448  0.794  0.496-  27 1.43  28 1.44  58 2.16
  53  0.270  0.306  0.512-   8 1.38   5 1.39  57 1.97
  54  0.268  0.699  0.510-  15 1.39  12 1.39  58 2.02
  55  0.369  0.503  0.537-  11 1.38  58 1.92  57 1.98
  56  0.560  0.601  0.490-  26 1.38  25 1.40  58 2.12
  57  0.414  0.356  0.510-  50 1.96  51 1.96  53 1.97  55 1.98
  58  0.400  0.627  0.481-  55 1.92  54 2.02  56 2.12  52 2.16  11 2.43  12 2.53
 
  LATTYP: Found a triclinic cell.
 ALAT       =    17.9376038442
 B/A-ratio  =     0.6841739442
 C/A-ratio  =     1.8282326761
 COS(alpha) =     0.0008378815
 COS(beta)  =     0.5787794397
 COS(gamma) =     0.6870426903
  
  Lattice vectors:
  
 A1 = ( -13.0976043645,  12.2560158326,   0.0216215565)
 A2 = (  -0.0637496963,  12.2722719030,   0.0095200771)
 A3 = ( -26.1140759802,  -0.0927863361, -19.8368421187)


Analysis of symmetry for initial positions (statically):
=====================================================================
 Subroutine PRICEL returns:
 Original cell was already a primitive cell.
 

 Routine SETGRP: Setting up the symmetry group for a 
 triclinic supercell.


 Subroutine GETGRP returns: Found  1 space group operations
 (whereof  1 operations were pure point group operations)
 out of a pool of  2 trial point group operations.


The static configuration has the point symmetry C_1 .


Analysis of symmetry for dynamics (positions and initial velocities):
=====================================================================
 Subroutine PRICEL returns:
 Original cell was already a primitive cell.
 

 Routine SETGRP: Setting up the symmetry group for a 
 triclinic supercell.


 Subroutine GETGRP returns: Found  1 space group operations
 (whereof  1 operations were pure point group operations)
 out of a pool of  2 trial point group operations.


The dynamic configuration has the point symmetry C_1 .


Analysis of structural, dynamic, and magnetic symmetry:
=====================================================================
 Subroutine PRICEL returns:
 Original cell was already a primitive cell.
 

 Routine SETGRP: Setting up the symmetry group for a 
 triclinic supercell.


 Subroutine GETGRP returns: Found  1 space group operations
 (whereof  1 operations were pure point group operations)
 out of a pool of  2 trial point group operations.


The magnetic configuration has the point symmetry C_1 .


 Subroutine INISYM returns: Found  1 space group operations
 (whereof  1 operations are pure point group operations),
 and found     1 'primitive' translations

 
 
 KPOINTS: KPOINTS created by Atomic Simulation Env

Automatic generation of k-mesh.
Space group operators:
 irot       det(A)        alpha          n_x          n_y          n_z        tau_x        tau_y        tau_z
    1     1.000000     0.000000     1.000000     0.000000     0.000000     0.000000     0.000000     0.000000
 
 Subroutine IBZKPT returns following result:
 ===========================================
 
 Found      2 irreducible k-points:
 
 Following reciprocal coordinates:
            Coordinates               Weight
  0.250000  0.250000 -0.000000      2.000000
 -0.250000  0.250000  0.000000      2.000000
 
 Following cartesian coordinates:
            Coordinates               Weight
  0.019155  0.020471 -0.000107      2.000000
 -0.019206  0.020271 -0.000017      2.000000
 
 
 Subroutine IBZKPT_HF returns following result:
 ==============================================
 
 Found      4 k-points in 1st BZ
 the following      4 k-points will be used (e.g. in the exchange kernel)
 Following reciprocal coordinates:   # in IRBZ
  0.250000  0.250000 -0.000000    0.25000000   1 t-inv F
 -0.250000  0.250000  0.000000    0.25000000   2 t-inv F
 -0.250000 -0.250000  0.000000    0.25000000   1 t-inv T
  0.250000 -0.250000 -0.000000    0.25000000   2 t-inv T


--------------------------------------------------------------------------------------------------------




 Dimension of arrays:
   k-points           NKPTS =      2   k-points in BZ     NKDIM =      4   number of bands    NBANDS=    154
   number of dos      NEDOS =    301   number of ions     NIONS =     58
   non local maximal  LDIM  =      6   non local SUM 2l+1 LMDIM =     18
   total plane-waves  NPLWV = ******
   max r-space proj   IRMAX =      1   max aug-charges    IRDMAX=  28371
   dimension x,y,z NGX =    96 NGY =   90 NGZ =  150
   dimension x,y,z NGXF=   192 NGYF=  180 NGZF=  300
   support grid    NGXF=   192 NGYF=  180 NGZF=  300
   ions per type =              52   4   1   1
   NGX,Y,Z   is equivalent  to a cutoff of  12.24, 12.19, 12.56 a.u.
   NGXF,Y,Z  is equivalent  to a cutoff of  24.49, 24.38, 25.11 a.u.

 SYSTEM =  unknown system                          
 POSCAR =   C  N Fe Ti                             

 Startparameter for this run:
   NWRITE =      2    write-flag & timer
   PREC   = accura    normal or accurate (medium, high low for compatibility)
   ISTART =      1    job   : 0-new  1-cont  2-samecut
   ICHARG =      0    charge: 1-file 2-atom 10-const
   ISPIN  =      2    spin polarized calculation?
   LNONCOLLINEAR =      F non collinear calculations
   LSORBIT =      F    spin-orbit coupling
   INIWAV =      1    electr: 0-lowe 1-rand  2-diag
   LASPH  =      T    aspherical Exc in radial PAW
   METAGGA=      F    non-selfconsistent MetaGGA calc.

 Electronic Relaxation 1
   ENCUT  =  500.0 eV  36.75 Ry    6.06 a.u.  23.76 22.38 36.21*2*pi/ulx,y,z
   ENINI  =  500.0     initial cutoff
   ENAUG  =  644.9 eV  augmentation charge cutoff
   NELM   =    250;   NELMIN=  2; NELMDL=  0     # of ELM steps 
   EDIFF  = 0.1E-03   stopping-criterion for ELM
   LREAL  =      F    real-space projection
   NLSPLINE    = F    spline interpolate recip. space projectors
   LCOMPAT=      F    compatible to vasp.4.4
   GGA_COMPAT  = T    GGA compatible to vasp.4.4-vasp.4.6
   LMAXPAW     = -100 max onsite density
   LMAXMIX     =    2 max onsite mixed and CHGCAR
   VOSKOWN=      0    Vosko Wilk Nusair interpolation
   ROPT   =    0.00000   0.00000   0.00000   0.00000
 Ionic relaxation
   EDIFFG = -.3E-01   stopping-criterion for IOM
   NSW    =      0    number of steps for IOM
   NBLOCK =      1;   KBLOCK =      1    inner block; outer block 
   IBRION =     -1    ionic relax: 0-MD 1-quasi-New 2-CG
   NFREE  =      1    steps in history (QN), initial steepest desc. (CG)
   ISIF   =      2    stress and relaxation
   IWAVPR =     10    prediction:  0-non 1-charg 2-wave 3-comb
   ISYM   =      3    0-nonsym 1-usesym 2-fastsym
   LCORR  =      T    Harris-Foulkes like correction to forces

   POTIM  = 0.5000    time-step for ionic-motion
   TEIN   =    0.0    initial temperature
   TEBEG  =    0.0;   TEEND  =   0.0 temperature during run
   SMASS  =  -3.00    Nose mass-parameter (am)
   estimated Nose-frequenzy (Omega)   =  0.10E-29 period in steps =****** mass=  -0.388E-26a.u.
   SCALEE = 1.0000    scale energy and forces
   NPACO  =    256;   APACO  = 16.0  distance and # of slots for P.C.
   PSTRESS=    0.0 pullay stress

  Mass of Ions in am
   POMASS =  12.01 14.00 55.85 47.88
  Ionic Valenz
   ZVAL   =   4.00  5.00  8.00  4.00
  Atomic Wigner-Seitz radii
   RWIGS  =  -1.00 -1.00 -1.00 -1.00
  virtual crystal weights 
   VCA    =   1.00  1.00  1.00  1.00
   NELECT =     240.0000    total number of electrons
   NUPDOWN=      -1.0000    fix difference up-down

 DOS related values:
   EMIN   =  10.00;   EMAX   =-10.00  energy-range for DOS
   EFERMI =   0.00
   ISMEAR =     0;   SIGMA  =   0.10  broadening in eV -4-tet -1-fermi 0-gaus

 Electronic relaxation 2 (details)
   IALGO  =     53    algorithm
   LDIAG  =      T    sub-space diagonalisation (order eigenvalues)
   LSUBROT=      F    optimize rotation matrix (better conditioning)
   TURBO    =      0    0=normal 1=particle mesh
   IRESTART =      0    0=no restart 2=restart with 2 vectors
   NREBOOT  =      0    no. of reboots
   NMIN     =      0    reboot dimension
   EREF     =   0.00    reference energy to select bands
   IMIX   =      4    mixing-type and parameters
     AMIX     =   0.40;   BMIX     =  1.00
     AMIX_MAG =   1.60;   BMIX_MAG =  1.00
     AMIN     =   0.10
     WC   =   100.;   INIMIX=   1;  MIXPRE=   1;  MAXMIX= -45

 Intra band minimization:
   WEIMIN = 0.0000     energy-eigenvalue tresh-hold
   EBREAK =  0.16E-06  absolut break condition
   DEPER  =   0.30     relativ break condition  

   TIME   =   0.20     timestep for ELM

  volume/ion in A,a.u.               =      54.77       369.63
  Fermi-wavevector in a.u.,A,eV,Ry     =   0.692061  1.307806  6.516488  0.478948
  Thomas-Fermi vector in A             =   1.773887
 
 Write flags
   LWAVE        =      T    write WAVECAR
   LDOWNSAMPLE  =      F    k-point downsampling of WAVECAR
   LCHARG       =      T    write CHGCAR
   LVTOT        =      F    write LOCPOT, total local potential
   LVHAR        =      F    write LOCPOT, Hartree potential only
   LELF         =      F    write electronic localiz. function (ELF)
   LORBIT       =     11    0 simple, 1 ext, 2 COOP (PROOUT), +10 PAW based schemes


 Dipole corrections
   LMONO  =      F    monopole corrections only (constant potential shift)
   LDIPOL =      T    correct potential (dipole corrections)
   IDIPOL =      3    1-x, 2-y, 3-z, 4-all directions 
   EPSILON=  1.0000000 bulk dielectric constant

 Exchange correlation treatment:
   GGA     =    PE    GGA type
   LEXCH   =     8    internal setting for exchange type
   VOSKOWN=      0    Vosko Wilk Nusair interpolation
   EXXOEP  =     0    0=HF, 1=EXX-LHF (local Hartree Fock) 2=EXX OEP
   LHFCALC =     T    Hartree Fock is set to
   LSYMGRAD=     F    symmetrize gradient (conserves proper symmetry)
   PRECFOCK=normal    Normal, Fast or Accurate (Low or Medium for compatibility)
   LRHFCALC=     F    long range Hartree Fock
   LRSCOR  =     F    long range correlation only (use DFT for short range part)
   LTHOMAS =     F    Thomas Fermi screening in HF
   LMODELHF=     F    short range full HF, long range fraction AEXX
   ENCUT4O =  -1.0   cutoff for four orbital integrals eV
   LMAXFOCK=     4    L truncation for augmentation on plane wave grid
   LMAXFOCKAE=  -1    L truncation for all-electron charge restoration on plane wave grid
   NMAXFOCKAE=   1    number of basis functions for all-electron charge restoration
   LFOCKAEDFT=     F  apply the AE augmentation even for DFT
   NKREDX  =     1    reduce k-point grid by
   NKREDY  =     1    reduce k-point grid by
   NKREDZ  =     1    reduce k-point grid by
   SHIFTRED=     F    shift reduced grid of Gamma
   HFKIDENT=     F    idential grid for each k-point
   ODDONLY =     F    use only odd q-grid points
   EVENONLY=     F    use only even q-grid points
   HFALPHA =   -1.0000 decay constant for conv. correction
   MCALPHA =    0.0000 extent of test-charge in conv. correction in multipole expansion
   AEXX    =    0.2500 exact exchange contribution
   HFSCREEN=    0.2000 screening length (either q_TF or 0.3 A-1)
   HFSCREENC=   0.2000 screening length for correlation (either q_TF or 0.3 A-1)
   HFRCUT  =    0.0000 spherical cutoff for potential kernel
   ALDAX   =    0.7500 LDA exchange part
   AGGAX   =    0.7500 GGA exchange part
   ALDAC   =    1.0000 LDA correlation
   AGGAC   =    1.0000 GGA correlation
   ENCUTFOCK=  -1.0 apply spherical cutoff to Coloumb kernel
   NBANDSGWLOW=     1    first orbital included in HF term
   NBLOCK_FOCK=    64    blocking factor in FOCK_ACC
 Linear response parameters
   LEPSILON=     F    determine dielectric tensor
   LRPA    =     F    only Hartree local field effects (RPA)
   LNABLA  =     F    use nabla operator in PAW spheres
   LVEL    =     F    velocity operator in full k-point grid
   LINTERFAST=   F  fast interpolation
   KINTER  =     0    interpolate to denser k-point grid
   CSHIFT  =0.1000    complex shift for real part using Kramers Kronig
   OMEGAMAX=  -1.0    maximum frequency
   DEG_THRESHOLD= 0.2000000E-02 threshold for treating states as degnerate
   RTIME   =   -0.100 relaxation time in fs
  (WPLASMAI=    0.000 imaginary part of plasma frequency in eV, 0.658/RTIME)
   DFIELD  = 0.0000000 0.0000000 0.0000000 field for delta impulse in time
 
 Orbital magnetization related:
   ORBITALMAG=     F  switch on orbital magnetization
   LCHIMAG   =     F  perturbation theory with respect to B field
   DQ        =  0.001000  dq finite difference perturbation B field
   LLRAUG    =     F  two centre corrections for induced B field



--------------------------------------------------------------------------------------------------------


 Static calculation
 charge density and potential will be updated during run
 spin polarized calculation
 Conjugate gradient for all bands (Freysoldt, et al. PRB 79, 241103 (2009))
 perform sub-space diagonalisation
    before iterative eigenvector-optimisation
 modified Broyden-mixing scheme, WC =      100.0
 initial mixing is a Kerker type mixing with AMIX =  0.4000 and BMIX =      1.0000
 Hartree-type preconditioning will be used
 using additional bands           34
 reciprocal scheme for non local part
 use partial core corrections
 no Harris-corrections to forces 
 use gradient corrections 
 use of overlap-Matrix (Vanderbilt PP)
 Gauss-broadening in eV      SIGMA  =   0.10


--------------------------------------------------------------------------------------------------------


  energy-cutoff  :      500.00
  volume of cell :     3176.89
      direct lattice vectors                 reciprocal lattice vectors
    13.033854668  0.016256070 -0.012101479     0.076722609  0.000398684 -0.000180323
    -0.063749696 12.272271903  0.009520077    -0.000101858  0.081484167 -0.000247050
     0.046366644  0.060274195 19.861045077     0.000046796 -0.000038815  0.050349826

  length of vectors
    13.033870424 12.272441172 19.861190660     0.076723857  0.081484606  0.050349863


 
 old parameters found on file WAVECAR:
  energy-cutoff  :      500.00
  volume of cell :     3176.89
      direct lattice vectors                 reciprocal lattice vectors
    12.977100000  0.000000000  0.000000000     0.077058819  0.000493865 -0.000249520
    -0.078537984 12.254448330  0.000000000     0.000000000  0.081603021 -0.000183424
     0.064398852  0.044903631 19.977045735     0.000000000  0.000000000  0.050057452

  length of vectors

 
 k-points in units of 2pi/SCALE and weight: KPOINTS created by Atomic Simulation Env
   0.01915519  0.02047071 -0.00010684       0.500
  -0.01920612  0.02027137 -0.00001668       0.500
 
 k-points in reciprocal lattice and weights: KPOINTS created by Atomic Simulation Env
   0.25000000  0.25000000 -0.00000000       0.500
  -0.25000000  0.25000000  0.00000000       0.500
 
 position of ions in fractional coordinates (direct lattice) 
   0.22501817  0.00154735  0.50294745
   0.05705113  0.10058170  0.50119408
   0.11347352  0.00119338  0.50217588
   0.28020780  0.10426803  0.50403535
   0.22192998  0.20524307  0.50625377
   0.05269115  0.29989862  0.50037728
   0.11115443  0.20167829  0.50274230
   0.21250475  0.40072671  0.50989295
   0.05053885  0.50086470  0.49882745
   0.10515795  0.40097716  0.50202091
   0.26666509  0.50267442  0.51976906
   0.21200830  0.60247678  0.50905963
   0.05195876  0.70179966  0.49940007
   0.10412542  0.60106633  0.50036099
   0.22026747  0.79906576  0.50547025
   0.05646297  0.90142674  0.50099927
   0.10999421  0.80097498  0.50241975
   0.27954971  0.89802281  0.50281900
   0.55671709  0.99833363  0.49811723
   0.39255302  0.10342735  0.50199508
   0.44617301  0.99878892  0.49987642
   0.61400430  0.09811481  0.49748064
   0.56024501  0.19794181  0.49746407
   0.61555506  0.30041678  0.49509158
   0.61119498  0.50033636  0.49191419
   0.61501601  0.69726944  0.49239048
   0.55769802  0.79816096  0.49483592
   0.39184587  0.89459037  0.50001794
   0.61304436  0.89845326  0.49664865
   0.89042980  0.00019496  0.49835195
   0.72430979  0.09872450  0.49700350
   0.77987949  0.99952701  0.49738724
   0.94630300  0.10010061  0.49904314
   0.88942490  0.19904428  0.49748343
   0.72455597  0.29920261  0.49482028
   0.77960206  0.19874623  0.49633164
   0.94325086  0.29974510  0.49744249
   0.88766955  0.39989549  0.49553254
   0.72231934  0.49973614  0.49270307
   0.77816128  0.39991677  0.49409679
   0.94179063  0.50034466  0.49581672
   0.88762315  0.60039878  0.49487455
   0.72395347  0.69964691  0.49375278
   0.77824338  0.59954787  0.49330345
   0.94268550  0.70118131  0.49676175
   0.88872602  0.80130171  0.49708221
   0.72356050  0.89980604  0.49662210
   0.77886626  0.80063476  0.49581682
   0.94577538  0.90077855  0.49880002
   0.45144236  0.20168505  0.50076388
   0.55722560  0.39864443  0.49466886
   0.44825252  0.79395499  0.49594290
   0.26955555  0.30648139  0.51157837
   0.26829463  0.69872680  0.50966683
   0.36910828  0.50311986  0.53728139
   0.56042550  0.60090703  0.48956453
   0.41391431  0.35550878  0.50974823
   0.40022454  0.62704718  0.48111087
 
 position of ions in cartesian coordinates  (Angst):
   2.95607546  0.05296219  9.98635365
   0.76042275  1.26550243  9.95450544
   1.50220546  0.04675841  9.97237589
   3.66891117  1.31454105 10.00827052
   2.90299216  2.55292054 10.05399721
   0.69085120  3.71145383  9.94023305
   1.45922417  2.50716008  9.98556243
   2.76785188  4.95201507 10.12825024
   0.64991495  6.17763576  9.91139106
   1.36832828  4.95286908  9.97320477
   3.46772869  6.20462081 10.32471518
   2.74848107  7.42788842 10.11362623
   0.65563886  8.64362178  9.92465977
   1.34203780  7.40830096  9.94215434
   2.84343092  9.84039974 10.04410894
   0.70169413 11.09366919  9.95826745
   1.40588213  9.86185377  9.98487562
   3.60967562 11.05563150  9.99167712
   7.21562216 12.29089545  9.89589588
   5.13316139  1.30592727  9.96638109
   5.77485924 12.29479191  9.93217731
   8.01965454  1.24405814  9.87398919
   7.31259905  2.46828738  9.87526094
   8.02685947  3.72664416  9.82844710
   7.95713868  6.17984921  9.76729683
   7.99440909  8.59675634  9.77858499
   7.24101634  9.83414018  9.82880813
   5.07341637 11.01516427  9.93465344
   7.95608284 11.06596348  9.86509586
  11.62882712  0.04690520  9.88701696
   9.45729929  1.25330488  9.86318362
  10.12417858 12.30912468  9.87870818
  12.35073332  1.27392445  9.90101966
  11.60301246  2.48716947  9.87167235
   9.44762627  3.71349914  9.82172804
  10.17156317  2.48165707  9.85012289
  12.29815073  3.72386990  9.87116649
  11.56723889  4.95192407  9.83485911
   9.40559225  6.17433720  9.78161432
  10.13985609  4.95031848  9.80766903
  12.26625474  6.18556046  9.84080452
  11.55382162  7.41251453  9.82370001
   9.41419574  8.62778632  9.80434600
  10.12816294  7.40019915  9.79381198
  12.26515885  8.65035392  9.86147500
  11.55549112  9.87820092  9.86944578
   9.39644673 11.08436016  9.86324396
  10.12357884  9.86815377  9.84563679
  12.29280222 11.10003867  9.90381994
   5.89439545  2.51265561  9.94215091
   7.26032020  4.93114692  9.82169233
   5.81483896  9.78081088  9.85207831
   3.51752989  3.79643985 10.16013668
   3.47600119  8.61004649 10.12592102
   4.80374186  6.21280812 10.67129281
   7.28889630  7.41311284  9.72220199
   5.39587070  4.40035365 10.12250817
   5.19880196  7.73079811  9.55649094
 


--------------------------------------------------------------------------------------------------------


 k-point  1 :   0.2500 0.2500-0.0000  plane waves:   80637
 k-point  2 :  -0.2500 0.2500 0.0000  plane waves:   80640

 maximum and minimum number of plane-waves per node :      2551     2489

 maximum number of plane-waves:     80640
 maximum index in each direction: 
   IXMAX=   24   IYMAX=   22   IZMAX=   36
   IXMIN=  -24   IYMIN=  -22   IZMIN=  -36


 parallel 3D FFT for wavefunctions:
    minimum data exchange during FFTs selected (reduces bandwidth)
 parallel 3D FFT for charge:
    minimum data exchange during FFTs selected (reduces bandwidth)


 FFT grid for exact exchange (Hartree Fock) 
  NGX = 72; NGY = 70; NGZ =112

 
 Radii for the augmentation spheres in the non-local exchange
 for species   1 augmentation radius   0.874 (default was   0.699)
       energy cutoff for augmentation   2000.0
 for species   2 augmentation radius   0.886 (default was   0.709)
       energy cutoff for augmentation   2000.0
 for species   3 augmentation radius   1.263 (default was   1.010)
       energy cutoff for augmentation   2000.0
 for species   4 augmentation radius   1.575 (default was   1.260)
       energy cutoff for augmentation   2000.0

 real space projection operators:
  total allocation   :       2807.02 KBytes
  max/ min on nodes  :        143.49         45.42

 Maximum index for augmentation-charges in exchange          218
  SETUP_FOCK is finished

 total amount of memory used by VASP MPI-rank0   162989. kBytes
=======================================================================

   base      :      30000. kBytes
   nonl-proj :       5322. kBytes
   fftplans  :      13453. kBytes
   grid      :      34560. kBytes
   one-center:         62. kBytes
   HF        :         23. kBytes
   nonlr-proj:       3138. kBytes
   wavefun   :      76431. kBytes
 
     INWAV:  cpu time    3.5063: real time    3.5070
 Broyden mixing: mesh for mixing (old mesh)
   NGX = 47   NGY = 45   NGZ = 73
  (NGX  =192   NGY  =180   NGZ  =300)
  gives a total of 154395 points

 charge density for first step will be calculated from the start-wavefunctions


--------------------------------------------------------------------------------------------------------


 Maximum index for augmentation-charges          576 (set IRDMAX)


--------------------------------------------------------------------------------------------------------


 initial charge from wavefunction
 First call to EWALD:  gamma=   0.121
 Maximum number of real-space cells 3x 3x 2
 Maximum number of reciprocal cells 2x 2x 4

    FEWALD:  cpu time    0.0032: real time    0.0032


--------------------------------------- Iteration      1(   1)  ---------------------------------------


    POTLOK:  cpu time    1.3169: real time    1.3185
    SETDIJ:  cpu time    2.0852: real time    2.0897
    TRIAL :  cpu time  510.4345: real time  510.6345
    CORREC:  cpu time    0.0023: real time    0.0025
    CHARGE:  cpu time    1.6316: real time    1.6318
    --------------------------------------------
      LOOP:  cpu time  515.4860: real time  515.6957

 eigenvalue-minimisations  :     0
 total energy-change (2. order) :-0.6066368E+03  (-0.4772887E+00)
 number of electron     240.0000020 magnetization       2.1867414
 augmentation part       10.8549631 magnetization       1.8203054

 DIPCOR: dipole corrections for dipol
 direction  3 min pos     1,
 dipolmoment           0.001039      0.001350      0.444848 electrons x Angstroem
 Tr[quadrupol]     -6321.019263

 energy correction for charged system         0.000000 eV
 dipol+quadrupol energy correction            0.005660 eV
 added-field ion interaction          0.000000 eV  (added to PSCEN)


 Free energy of the ion-electron system (eV)
  ---------------------------------------------------
  alpha Z        PSCENC =       100.37559378
  Ewald energy   TEWEN  =     37368.23210027
  -Hartree energ DENC   =    -45378.82709198
  -exchange      EXHF   =       538.92365755
  -V(xc)+E(xc)   XCENC  =       583.83102192
  PAW double counting   =     25655.00073305   -25659.90165662
  entropy T*S    EENTRO =        -0.02366600
  eigenvalues    EBANDS =     -3102.37012349
  atomic energy  EATOM  =      9288.12480467
  ---------------------------------------------------
  free energy    TOTEN  =      -606.63682309 eV

  energy without entropy =     -606.61315709  energy(sigma->0) =     -606.62499009
  exchange ACFDT corr.  =        -0.02938579  see jH, gK, PRB 81, 115126


--------------------------------------------------------------------------------------------------------




--------------------------------------- Iteration      1(   2)  ---------------------------------------


    POTLOK:  cpu time    1.3252: real time    1.3252
    SETDIJ:  cpu time    2.0801: real time    2.0805
    TRIAL :  cpu time  514.6472: real time  514.8661
    CORREC:  cpu time    0.0023: real time    0.0026
    CHARGE:  cpu time    1.6261: real time    1.6263
    --------------------------------------------
      LOOP:  cpu time  519.6833: real time  519.9031

 eigenvalue-minimisations  :     0
 total energy-change (2. order) :-0.3733263E+00  (-0.3763214E+00)
 number of electron     240.0000021 magnetization       2.1715352
 augmentation part       10.8021321 magnetization       1.8691675

 DIPCOR: dipole corrections for dipol
 direction  3 min pos     1,
 dipolmoment           0.001131      0.001470      0.484271 electrons x Angstroem
 Tr[quadrupol]     -6320.812458

 energy correction for charged system         0.000000 eV
 dipol+quadrupol energy correction            0.006708 eV
 added-field ion interaction          0.000000 eV  (added to PSCEN)


 Free energy of the ion-electron system (eV)
  ---------------------------------------------------
  alpha Z        PSCENC =       100.37664145
  Ewald energy   TEWEN  =     37368.23210027
  -Hartree energ DENC   =    -45363.70665700
  -exchange      EXHF   =       538.85388353
  -V(xc)+E(xc)   XCENC  =       583.56461464
  PAW double counting   =     25784.44990204   -25788.84053271
  entropy T*S    EENTRO =        -0.02163313
  eigenvalues    EBANDS =     -3118.04124031
  atomic energy  EATOM  =      9288.12480467
  ---------------------------------------------------
  free energy    TOTEN  =      -607.01014941 eV

  energy without entropy =     -606.98851628  energy(sigma->0) =     -606.99933284
  exchange ACFDT corr.  =        -0.02349171  see jH, gK, PRB 81, 115126


--------------------------------------------------------------------------------------------------------




--------------------------------------- Iteration      1(   3)  ---------------------------------------


    POTLOK:  cpu time    1.3279: real time    1.3280
    SETDIJ:  cpu time    2.0781: real time    2.0784
    TRIAL :  cpu time  512.2902: real time  512.4868
    CORREC:  cpu time    0.0022: real time    0.0025
    CHARGE:  cpu time    1.6244: real time    1.6245
    --------------------------------------------
      LOOP:  cpu time  517.3252: real time  517.5279

 eigenvalue-minimisations  :     0
 total energy-change (2. order) :-0.2861860E+00  (-0.2193587E+00)
 number of electron     240.0000021 magnetization       2.1522170
 augmentation part       10.7882961 magnetization       1.9093019

 DIPCOR: dipole corrections for dipol
 direction  3 min pos     1,
 dipolmoment           0.001154      0.001500      0.494361 electrons x Angstroem
 Tr[quadrupol]     -6320.608280

 energy correction for charged system         0.000000 eV
 dipol+quadrupol energy correction            0.006990 eV
 added-field ion interaction          0.000000 eV  (added to PSCEN)


 Free energy of the ion-electron system (eV)
  ---------------------------------------------------
  alpha Z        PSCENC =       100.37692387
  Ewald energy   TEWEN  =     37368.23210027
  -Hartree energ DENC   =    -45347.02163801
  -exchange      EXHF   =       538.75780686
  -V(xc)+E(xc)   XCENC  =       583.21586031
  PAW double counting   =     25952.75566285   -25956.96075612
  entropy T*S    EENTRO =        -0.01963910
  eigenvalues    EBANDS =     -3134.75546695
  atomic energy  EATOM  =      9288.12480467
  ---------------------------------------------------
  free energy    TOTEN  =      -607.29633537 eV

  energy without entropy =     -607.27669627  energy(sigma->0) =     -607.28651582
  exchange ACFDT corr.  =        -0.01871211  see jH, gK, PRB 81, 115126


--------------------------------------------------------------------------------------------------------




--------------------------------------- Iteration      1(   4)  ---------------------------------------


    POTLOK:  cpu time    1.3255: real time    1.3256
    SETDIJ:  cpu time    2.0827: real time    2.0829
    TRIAL :  cpu time  512.3273: real time  512.5108
    CORREC:  cpu time    0.0021: real time    0.0024
    CHARGE:  cpu time    1.6228: real time    1.6230
    --------------------------------------------
      LOOP:  cpu time  517.3624: real time  517.5467

 eigenvalue-minimisations  :     0
 total energy-change (2. order) :-0.1660522E+00  (-0.1206204E+00)
 number of electron     240.0000021 magnetization       2.1321779
 augmentation part       10.7891073 magnetization       1.9377427

 DIPCOR: dipole corrections for dipol
 direction  3 min pos     1,
 dipolmoment           0.001114      0.001448      0.477075 electrons x Angstroem
 Tr[quadrupol]     -6320.520846

 energy correction for charged system         0.000000 eV
 dipol+quadrupol energy correction            0.006510 eV
 added-field ion interaction          0.000000 eV  (added to PSCEN)


 Free energy of the ion-electron system (eV)
  ---------------------------------------------------
  alpha Z        PSCENC =       100.37644357
  Ewald energy   TEWEN  =     37368.23210027
  -Hartree energ DENC   =    -45337.53900436
  -exchange      EXHF   =       538.79097627
  -V(xc)+E(xc)   XCENC  =       583.00449841
  PAW double counting   =     26095.06892030   -26099.33861498
  entropy T*S    EENTRO =        -0.01758391
  eigenvalues    EBANDS =     -3144.16287268
  atomic energy  EATOM  =      9288.12480467
  ---------------------------------------------------
  free energy    TOTEN  =      -607.46238762 eV

  energy without entropy =     -607.44480370  energy(sigma->0) =     -607.45359566
  exchange ACFDT corr.  =        -0.01546650  see jH, gK, PRB 81, 115126


--------------------------------------------------------------------------------------------------------




--------------------------------------- Iteration      1(   5)  ---------------------------------------


    POTLOK:  cpu time    1.3257: real time    1.3259
    SETDIJ:  cpu time    2.0804: real time    2.0805
    TRIAL :  cpu time  512.9916: real time  513.1783
    CORREC:  cpu time    0.0021: real time    0.0023
    CHARGE:  cpu time    1.6303: real time    1.6343
    --------------------------------------------
      LOOP:  cpu time  518.0323: real time  518.2235

 eigenvalue-minimisations  :     0
 total energy-change (2. order) :-0.9462671E-01  (-0.7877628E-01)
 number of electron     240.0000021 magnetization       2.1126268
 augmentation part       10.7897670 magnetization       1.9572096

 DIPCOR: dipole corrections for dipol
 direction  3 min pos     1,
 dipolmoment           0.001093      0.001420      0.468066 electrons x Angstroem
 Tr[quadrupol]     -6320.539976

 energy correction for charged system         0.000000 eV
 dipol+quadrupol energy correction            0.006266 eV
 added-field ion interaction          0.000000 eV  (added to PSCEN)


 Free energy of the ion-electron system (eV)
  ---------------------------------------------------
  alpha Z        PSCENC =       100.37620003
  Ewald energy   TEWEN  =     37368.23210027
  -Hartree energ DENC   =    -45336.72809955
  -exchange      EXHF   =       538.99799555
  -V(xc)+E(xc)   XCENC  =       583.01109427
  PAW double counting   =     26194.24454146   -26198.60968578
  entropy T*S    EENTRO =        -0.01550006
  eigenvalues    EBANDS =     -3145.18838135
  atomic energy  EATOM  =      9288.12480467
  ---------------------------------------------------
  free energy    TOTEN  =      -607.55701433 eV

  energy without entropy =     -607.54151427  energy(sigma->0) =     -607.54926430
  exchange ACFDT corr.  =        -0.01289053  see jH, gK, PRB 81, 115126


--------------------------------------------------------------------------------------------------------




--------------------------------------- Iteration      1(   6)  ---------------------------------------


    POTLOK:  cpu time    1.3228: real time    1.3230
    SETDIJ:  cpu time    2.0766: real time    2.0766
    TRIAL :  cpu time  512.9091: real time  513.1029
    CORREC:  cpu time    0.0019: real time    0.0022
    CHARGE:  cpu time    1.6210: real time    1.6211
    --------------------------------------------
      LOOP:  cpu time  517.9335: real time  518.1279

 eigenvalue-minimisations  :     0
 total energy-change (2. order) :-0.6512221E-01  (-0.5514114E-01)
 number of electron     240.0000021 magnetization       2.0942569
 augmentation part       10.7899825 magnetization       1.9709151

 DIPCOR: dipole corrections for dipol
 direction  3 min pos     1,
 dipolmoment           0.001112      0.001446      0.476454 electrons x Angstroem
 Tr[quadrupol]     -6320.600138

 energy correction for charged system         0.000000 eV
 dipol+quadrupol energy correction            0.006493 eV
 added-field ion interaction          0.000000 eV  (added to PSCEN)


 Free energy of the ion-electron system (eV)
  ---------------------------------------------------
  alpha Z        PSCENC =       100.37642663
  Ewald energy   TEWEN  =     37368.23210027
  -Hartree energ DENC   =    -45340.56297537
  -exchange      EXHF   =       539.28431636
  -V(xc)+E(xc)   XCENC  =       583.15099122
  PAW double counting   =     26255.61286657   -26260.02697181
  entropy T*S    EENTRO =        -0.01344618
  eigenvalues    EBANDS =     -3141.79819503
  atomic energy  EATOM  =      9288.12480467
  ---------------------------------------------------
  free energy    TOTEN  =      -607.62213654 eV

  energy without entropy =     -607.60869036  energy(sigma->0) =     -607.61541345
  exchange ACFDT corr.  =        -0.01068532  see jH, gK, PRB 81, 115126


--------------------------------------------------------------------------------------------------------




--------------------------------------- Iteration      1(   7)  ---------------------------------------


    POTLOK:  cpu time    1.3231: real time    1.3233
    SETDIJ:  cpu time    2.0796: real time    2.0838
    TRIAL :  cpu time  510.8629: real time  511.0503
    CORREC:  cpu time    0.0019: real time    0.0021
    CHARGE:  cpu time    1.6194: real time    1.6196
    --------------------------------------------
      LOOP:  cpu time  515.8890: real time  516.0812

 eigenvalue-minimisations  :     0
 total energy-change (2. order) :-0.4597448E-01  (-0.3741797E-01)
 number of electron     240.0000021 magnetization       2.0774705
 augmentation part       10.7927946 magnetization       1.9809432

 DIPCOR: dipole corrections for dipol
 direction  3 min pos     1,
 dipolmoment           0.001142      0.001484      0.489149 electrons x Angstroem
 Tr[quadrupol]     -6320.652403

 energy correction for charged system         0.000000 eV
 dipol+quadrupol energy correction            0.006844 eV
 added-field ion interaction          0.000000 eV  (added to PSCEN)


 Free energy of the ion-electron system (eV)
  ---------------------------------------------------
  alpha Z        PSCENC =       100.37677726
  Ewald energy   TEWEN  =     37368.23210027
  -Hartree energ DENC   =    -45344.73308974
  -exchange      EXHF   =       539.53840234
  -V(xc)+E(xc)   XCENC  =       583.30540196
  PAW double counting   =     26289.86664572   -26294.30462949
  entropy T*S    EENTRO =        -0.01147175
  eigenvalues    EBANDS =     -3138.06107785
  atomic energy  EATOM  =      9288.12480467
  ---------------------------------------------------
  free energy    TOTEN  =      -607.66811102 eV

  energy without entropy =     -607.65663927  energy(sigma->0) =     -607.66237514
  exchange ACFDT corr.  =        -0.00876796  see jH, gK, PRB 81, 115126


--------------------------------------------------------------------------------------------------------




--------------------------------------- Iteration      1(   8)  ---------------------------------------


    POTLOK:  cpu time    1.3196: real time    1.3197
    SETDIJ:  cpu time    2.0782: real time    2.0785
    TRIAL :  cpu time  508.0944: real time  508.2756
    CORREC:  cpu time    0.0021: real time    0.0023
    CHARGE:  cpu time    1.6161: real time    1.6162
    --------------------------------------------
      LOOP:  cpu time  513.1125: real time  513.2945

 eigenvalue-minimisations  :     0
 total energy-change (2. order) :-0.3216236E-01  (-0.2721969E-01)
 number of electron     240.0000021 magnetization       2.0627663
 augmentation part       10.7980210 magnetization       1.9887559

 DIPCOR: dipole corrections for dipol
 direction  3 min pos     1,
 dipolmoment           0.001156      0.001503      0.495245 electrons x Angstroem
 Tr[quadrupol]     -6320.679902

 energy correction for charged system         0.000000 eV
 dipol+quadrupol energy correction            0.007015 eV
 added-field ion interaction          0.000000 eV  (added to PSCEN)


 Free energy of the ion-electron system (eV)
  ---------------------------------------------------
  alpha Z        PSCENC =       100.37694890
  Ewald energy   TEWEN  =     37368.23210027
  -Hartree energ DENC   =    -45347.16263484
  -exchange      EXHF   =       539.70787622
  -V(xc)+E(xc)   XCENC  =       583.40916936
  PAW double counting   =     26306.46227308   -26310.93200825
  entropy T*S    EENTRO =        -0.00965095
  eigenvalues    EBANDS =     -3135.90733104
  atomic energy  EATOM  =      9288.12480467
  ---------------------------------------------------
  free energy    TOTEN  =      -607.70027338 eV

  energy without entropy =     -607.69062243  energy(sigma->0) =     -607.69544790
  exchange ACFDT corr.  =        -0.00711127  see jH, gK, PRB 81, 115126


--------------------------------------------------------------------------------------------------------




--------------------------------------- Iteration      1(   9)  ---------------------------------------


    POTLOK:  cpu time    1.3182: real time    1.3184
    SETDIJ:  cpu time    2.0805: real time    2.0807
    TRIAL :  cpu time  507.7436: real time  507.9294
    CORREC:  cpu time    0.0022: real time    0.0024
    CHARGE:  cpu time    1.6158: real time    1.6160
    --------------------------------------------
      LOOP:  cpu time  512.7624: real time  512.9490

 eigenvalue-minimisations  :     0
 total energy-change (2. order) :-0.2414839E-01  (-0.2053653E-01)
 number of electron     240.0000021 magnetization       2.0505340
 augmentation part       10.8030774 magnetization       1.9954299

 DIPCOR: dipole corrections for dipol
 direction  3 min pos     1,
 dipolmoment           0.001153      0.001499      0.494062 electrons x Angstroem
 Tr[quadrupol]     -6320.686912

 energy correction for charged system         0.000000 eV
 dipol+quadrupol energy correction            0.006982 eV
 added-field ion interaction          0.000000 eV  (added to PSCEN)


 Free energy of the ion-electron system (eV)
  ---------------------------------------------------
  alpha Z        PSCENC =       100.37691542
  Ewald energy   TEWEN  =     37368.23210027
  -Hartree energ DENC   =    -45347.84960183
  -exchange      EXHF   =       539.80037000
  -V(xc)+E(xc)   XCENC  =       583.45850462
  PAW double counting   =     26313.01525690   -26317.53083240
  entropy T*S    EENTRO =        -0.00805834
  eigenvalues    EBANDS =     -3135.34228849
  atomic energy  EATOM  =      9288.12480467
  ---------------------------------------------------
  free energy    TOTEN  =      -607.72442177 eV

  energy without entropy =     -607.71636343  energy(sigma->0) =     -607.72039260
  exchange ACFDT corr.  =        -0.00570996  see jH, gK, PRB 81, 115126


--------------------------------------------------------------------------------------------------------




--------------------------------------- Iteration      1(  10)  ---------------------------------------


    POTLOK:  cpu time    1.3183: real time    1.3185
    SETDIJ:  cpu time    2.0783: real time    2.0828
    TRIAL :  cpu time  508.6015: real time  508.7893
    CORREC:  cpu time    0.0021: real time    0.0023
    CHARGE:  cpu time    1.6166: real time    1.6167
    --------------------------------------------
      LOOP:  cpu time  513.6188: real time  513.8115

 eigenvalue-minimisations  :     0
 total energy-change (2. order) :-0.1846144E-01  (-0.1555260E-01)
 number of electron     240.0000021 magnetization       2.0407770
 augmentation part       10.8060831 magnetization       2.0014924

 DIPCOR: dipole corrections for dipol
 direction  3 min pos     1,
 dipolmoment           0.001145      0.001488      0.490464 electrons x Angstroem
 Tr[quadrupol]     -6320.684237

 energy correction for charged system         0.000000 eV
 dipol+quadrupol energy correction            0.006880 eV
 added-field ion interaction          0.000000 eV  (added to PSCEN)


 Free energy of the ion-electron system (eV)
  ---------------------------------------------------
  alpha Z        PSCENC =       100.37681410
  Ewald energy   TEWEN  =     37368.23210027
  -Hartree energ DENC   =    -45347.66440663
  -exchange      EXHF   =       539.84962600
  -V(xc)+E(xc)   XCENC  =       583.47854468
  PAW double counting   =     26314.72239924   -26319.28509675
  entropy T*S    EENTRO =        -0.00672682
  eigenvalues    EBANDS =     -3135.56961044
  atomic energy  EATOM  =      9288.12480467
  ---------------------------------------------------
  free energy    TOTEN  =      -607.74288321 eV

  energy without entropy =     -607.73615639  energy(sigma->0) =     -607.73951980
  exchange ACFDT corr.  =        -0.00456419  see jH, gK, PRB 81, 115126


--------------------------------------------------------------------------------------------------------




--------------------------------------- Iteration      1(  11)  ---------------------------------------


    POTLOK:  cpu time    1.3175: real time    1.3176
    SETDIJ:  cpu time    2.0811: real time    2.0813
    TRIAL :  cpu time  508.4278: real time  508.6109
    CORREC:  cpu time    0.0022: real time    0.0024
    CHARGE:  cpu time    1.6183: real time    1.6184
    --------------------------------------------
      LOOP:  cpu time  513.4490: real time  513.6328

 eigenvalue-minimisations  :     0
 total energy-change (2. order) :-0.1412493E-01  (-0.1203627E-01)
 number of electron     240.0000021 magnetization       2.0331534
 augmentation part       10.8071904 magnetization       2.0069518

 DIPCOR: dipole corrections for dipol
 direction  3 min pos     1,
 dipolmoment           0.001141      0.001483      0.488689 electrons x Angstroem
 Tr[quadrupol]     -6320.680305

 energy correction for charged system         0.000000 eV
 dipol+quadrupol energy correction            0.006831 eV
 added-field ion interaction          0.000000 eV  (added to PSCEN)


 Free energy of the ion-electron system (eV)
  ---------------------------------------------------
  alpha Z        PSCENC =       100.37676438
  Ewald energy   TEWEN  =     37368.23210027
  -Hartree energ DENC   =    -45347.37681110
  -exchange      EXHF   =       539.88481296
  -V(xc)+E(xc)   XCENC  =       583.49266739
  PAW double counting   =     26314.58621051   -26319.18489467
  entropy T*S    EENTRO =        -0.00564092
  eigenvalues    EBANDS =     -3135.88593573
  atomic energy  EATOM  =      9288.12480467
  ---------------------------------------------------
  free energy    TOTEN  =      -607.75700814 eV

  energy without entropy =     -607.75136722  energy(sigma->0) =     -607.75418768
  exchange ACFDT corr.  =        -0.00365716  see jH, gK, PRB 81, 115126


--------------------------------------------------------------------------------------------------------




--------------------------------------- Iteration      1(  12)  ---------------------------------------


    POTLOK:  cpu time    1.3215: real time    1.3218
    SETDIJ:  cpu time    2.0776: real time    2.0778
    TRIAL :  cpu time  507.3900: real time  507.5728
    CORREC:  cpu time    0.0022: real time    0.0024
    CHARGE:  cpu time    1.6193: real time    1.6195
    --------------------------------------------
      LOOP:  cpu time  512.4127: real time  512.5963

 eigenvalue-minimisations  :     0
 total energy-change (2. order) :-0.1098783E-01  (-0.9432709E-02)
 number of electron     240.0000021 magnetization       2.0272102
 augmentation part       10.8075965 magnetization       2.0116534

 DIPCOR: dipole corrections for dipol
 direction  3 min pos     1,
 dipolmoment           0.001142      0.001485      0.489336 electrons x Angstroem
 Tr[quadrupol]     -6320.678072

 energy correction for charged system         0.000000 eV
 dipol+quadrupol energy correction            0.006849 eV
 added-field ion interaction          0.000000 eV  (added to PSCEN)


 Free energy of the ion-electron system (eV)
  ---------------------------------------------------
  alpha Z        PSCENC =       100.37678248
  Ewald energy   TEWEN  =     37368.23210027
  -Hartree energ DENC   =    -45347.25418299
  -exchange      EXHF   =       539.91757070
  -V(xc)+E(xc)   XCENC  =       583.50906149
  PAW double counting   =     26314.27526540   -26318.89725703
  entropy T*S    EENTRO =        -0.00476122
  eigenvalues    EBANDS =     -3136.04650003
  atomic energy  EATOM  =      9288.12480467
  ---------------------------------------------------
  free energy    TOTEN  =      -607.76799597 eV

  energy without entropy =     -607.76323476  energy(sigma->0) =     -607.76561537
  exchange ACFDT corr.  =        -0.00295241  see jH, gK, PRB 81, 115126


--------------------------------------------------------------------------------------------------------




--------------------------------------- Iteration      1(  13)  ---------------------------------------


    POTLOK:  cpu time    1.3125: real time    1.3127
    SETDIJ:  cpu time    2.0754: real time    2.0755
    TRIAL :  cpu time  508.9703: real time  509.1595
    CORREC:  cpu time    0.0021: real time    0.0024
    CHARGE:  cpu time    1.6175: real time    1.6176
    --------------------------------------------
      LOOP:  cpu time  513.9804: real time  514.1702

 eigenvalue-minimisations  :     0
 total energy-change (2. order) :-0.8656804E-02  (-0.7484637E-02)
 number of electron     240.0000021 magnetization       2.0225576
 augmentation part       10.8081815 magnetization       2.0155537

 DIPCOR: dipole corrections for dipol
 direction  3 min pos     1,
 dipolmoment           0.001145      0.001489      0.490626 electrons x Angstroem
 Tr[quadrupol]     -6320.677352

 energy correction for charged system         0.000000 eV
 dipol+quadrupol energy correction            0.006885 eV
 added-field ion interaction          0.000000 eV  (added to PSCEN)


 Free energy of the ion-electron system (eV)
  ---------------------------------------------------
  alpha Z        PSCENC =       100.37681865
  Ewald energy   TEWEN  =     37368.23210027
  -Hartree energ DENC   =    -45347.23950596
  -exchange      EXHF   =       539.94762552
  -V(xc)+E(xc)   XCENC  =       583.52564502
  PAW double counting   =     26314.30911939   -26318.94772220
  entropy T*S    EENTRO =        -0.00404844
  eigenvalues    EBANDS =     -3136.10077693
  atomic energy  EATOM  =      9288.12480467
  ---------------------------------------------------
  free energy    TOTEN  =      -607.77665278 eV

  energy without entropy =     -607.77260434  energy(sigma->0) =     -607.77462856
  exchange ACFDT corr.  =        -0.00240711  see jH, gK, PRB 81, 115126


--------------------------------------------------------------------------------------------------------




--------------------------------------- Iteration      1(  14)  ---------------------------------------


    POTLOK:  cpu time    1.3107: real time    1.3147
    SETDIJ:  cpu time    2.0782: real time    2.0783
    TRIAL :  cpu time  508.0431: real time  508.2247
    CORREC:  cpu time    0.0021: real time    0.0024
    CHARGE:  cpu time    1.6172: real time    1.6173
    --------------------------------------------
      LOOP:  cpu time  513.0535: real time  513.2395

 eigenvalue-minimisations  :     0
 total energy-change (2. order) :-0.6943372E-02  (-0.6039646E-02)
 number of electron     240.0000021 magnetization       2.0189079
 augmentation part       10.8090541 magnetization       2.0187435

 DIPCOR: dipole corrections for dipol
 direction  3 min pos     1,
 dipolmoment           0.001147      0.001490      0.491119 electrons x Angstroem
 Tr[quadrupol]     -6320.677292

 energy correction for charged system         0.000000 eV
 dipol+quadrupol energy correction            0.006899 eV
 added-field ion interaction          0.000000 eV  (added to PSCEN)


 Free energy of the ion-electron system (eV)
  ---------------------------------------------------
  alpha Z        PSCENC =       100.37683250
  Ewald energy   TEWEN  =     37368.23210027
  -Hartree energ DENC   =    -45347.23240231
  -exchange      EXHF   =       539.97287061
  -V(xc)+E(xc)   XCENC  =       583.53937271
  PAW double counting   =     26314.72633480   -26319.38063386
  entropy T*S    EENTRO =        -0.00347186
  eigenvalues    EBANDS =     -3136.13882710
  atomic energy  EATOM  =      9288.12480467
  ---------------------------------------------------
  free energy    TOTEN  =      -607.78359615 eV

  energy without entropy =     -607.78012429  energy(sigma->0) =     -607.78186022
  exchange ACFDT corr.  =        -0.00198406  see jH, gK, PRB 81, 115126


--------------------------------------------------------------------------------------------------------




--------------------------------------- Iteration      1(  15)  ---------------------------------------


    POTLOK:  cpu time    1.3094: real time    1.3143
    SETDIJ:  cpu time    2.0774: real time    2.0776
    TRIAL :  cpu time  508.0994: real time  508.2846
    CORREC:  cpu time    0.0021: real time    0.0023
    CHARGE:  cpu time    1.6154: real time    1.6159
    --------------------------------------------
      LOOP:  cpu time  513.1060: real time  513.2970

 eigenvalue-minimisations  :     0
 total energy-change (2. order) :-0.5663649E-02  (-0.4933132E-02)
 number of electron     240.0000021 magnetization       2.0160458
 augmentation part       10.8098925 magnetization       2.0213481

 DIPCOR: dipole corrections for dipol
 direction  3 min pos     1,
 dipolmoment           0.001146      0.001489      0.490745 electrons x Angstroem
 Tr[quadrupol]     -6320.677332

 energy correction for charged system         0.000000 eV
 dipol+quadrupol energy correction            0.006888 eV
 added-field ion interaction          0.000000 eV  (added to PSCEN)


 Free energy of the ion-electron system (eV)
  ---------------------------------------------------
  alpha Z        PSCENC =       100.37682197
  Ewald energy   TEWEN  =     37368.23210027
  -Hartree energ DENC   =    -45347.20111367
  -exchange      EXHF   =       539.99355418
  -V(xc)+E(xc)   XCENC  =       583.54998961
  PAW double counting   =     26315.50181092   -26320.17250638
  entropy T*S    EENTRO =        -0.00300717
  eigenvalues    EBANDS =     -3136.19124951
  atomic energy  EATOM  =      9288.12480467
  ---------------------------------------------------
  free energy    TOTEN  =      -607.78925980 eV

  energy without entropy =     -607.78625263  energy(sigma->0) =     -607.78775622
  exchange ACFDT corr.  =        -0.00165508  see jH, gK, PRB 81, 115126


--------------------------------------------------------------------------------------------------------




--------------------------------------- Iteration      1(  16)  ---------------------------------------


    POTLOK:  cpu time    1.3128: real time    1.3129
    SETDIJ:  cpu time    2.0788: real time    2.0788
    TRIAL :  cpu time  509.2995: real time  509.4880
    CORREC:  cpu time    0.0020: real time    0.0023
    CHARGE:  cpu time    1.6159: real time    1.6159
    --------------------------------------------
      LOOP:  cpu time  514.3112: real time  514.5001

 eigenvalue-minimisations  :     0
 total energy-change (2. order) :-0.4661091E-02  (-0.4080480E-02)
 number of electron     240.0000021 magnetization       2.0137976
 augmentation part       10.8104568 magnetization       2.0234529

 DIPCOR: dipole corrections for dipol
 direction  3 min pos     1,
 dipolmoment           0.001144      0.001488      0.490186 electrons x Angstroem
 Tr[quadrupol]     -6320.677288

 energy correction for charged system         0.000000 eV
 dipol+quadrupol energy correction            0.006873 eV
 added-field ion interaction          0.000000 eV  (added to PSCEN)


 Free energy of the ion-electron system (eV)
  ---------------------------------------------------
  alpha Z        PSCENC =       100.37680630
  Ewald energy   TEWEN  =     37368.23210027
  -Hartree energ DENC   =    -45347.16542533
  -exchange      EXHF   =       540.01154641
  -V(xc)+E(xc)   XCENC  =       583.55908536
  PAW double counting   =     26316.54151338   -26321.22765147
  entropy T*S    EENTRO =        -0.00263322
  eigenvalues    EBANDS =     -3136.24369332
  atomic energy  EATOM  =      9288.12480467
  ---------------------------------------------------
  free energy    TOTEN  =      -607.79392089 eV

  energy without entropy =     -607.79128767  energy(sigma->0) =     -607.79260428
  exchange ACFDT corr.  =        -0.00139899  see jH, gK, PRB 81, 115126


--------------------------------------------------------------------------------------------------------




--------------------------------------- Iteration      1(  17)  ---------------------------------------


    POTLOK:  cpu time    1.3081: real time    1.3085
    SETDIJ:  cpu time    2.0806: real time    2.0807
    TRIAL :  cpu time  508.6745: real time  508.8656
    CORREC:  cpu time    0.0020: real time    0.0020
    CHARGE:  cpu time    1.6186: real time    1.6190
    --------------------------------------------
      LOOP:  cpu time  513.6862: real time  513.8782

 eigenvalue-minimisations  :     0
 total energy-change (2. order) :-0.3873359E-02  (-0.3423502E-02)
 number of electron     240.0000021 magnetization       2.0120207
 augmentation part       10.8107676 magnetization       2.0251081

 DIPCOR: dipole corrections for dipol
 direction  3 min pos     1,
 dipolmoment           0.001144      0.001487      0.489912 electrons x Angstroem
 Tr[quadrupol]     -6320.677045

 energy correction for charged system         0.000000 eV
 dipol+quadrupol energy correction            0.006865 eV
 added-field ion interaction          0.000000 eV  (added to PSCEN)


 Free energy of the ion-electron system (eV)
  ---------------------------------------------------
  alpha Z        PSCENC =       100.37679862
  Ewald energy   TEWEN  =     37368.23210027
  -Hartree energ DENC   =    -45347.13853819
  -exchange      EXHF   =       540.02809899
  -V(xc)+E(xc)   XCENC  =       583.56777458
  PAW double counting   =     26317.68942068   -26322.38832546
  entropy T*S    EENTRO =        -0.00233128
  eigenvalues    EBANDS =     -3136.28729518
  atomic energy  EATOM  =      9288.12480467
  ---------------------------------------------------
  free energy    TOTEN  =      -607.79779425 eV

  energy without entropy =     -607.79546297  energy(sigma->0) =     -607.79662861
  exchange ACFDT corr.  =        -0.00119908  see jH, gK, PRB 81, 115126


--------------------------------------------------------------------------------------------------------




--------------------------------------- Iteration      1(  18)  ---------------------------------------


    POTLOK:  cpu time    1.3078: real time    1.3081
    SETDIJ:  cpu time    2.0707: real time    2.0751
    TRIAL :  cpu time  508.8211: real time  509.0003
    CORREC:  cpu time    0.0021: real time    0.0024
    CHARGE:  cpu time    1.6281: real time    1.6283
    --------------------------------------------
      LOOP:  cpu time  513.8324: real time  514.0167

 eigenvalue-minimisations  :     0
 total energy-change (2. order) :-0.3261544E-02  (-0.2911528E-02)
 number of electron     240.0000021 magnetization       2.0106023
 augmentation part       10.8109728 magnetization       2.0263526

 DIPCOR: dipole corrections for dipol
 direction  3 min pos     1,
 dipolmoment           0.001144      0.001487      0.489882 electrons x Angstroem
 Tr[quadrupol]     -6320.676505

 energy correction for charged system         0.000000 eV
 dipol+quadrupol energy correction            0.006864 eV
 added-field ion interaction          0.000000 eV  (added to PSCEN)


 Free energy of the ion-electron system (eV)
  ---------------------------------------------------
  alpha Z        PSCENC =       100.37679777
  Ewald energy   TEWEN  =     37368.23210027
  -Hartree energ DENC   =    -45347.11070089
  -exchange      EXHF   =       540.04320906
  -V(xc)+E(xc)   XCENC  =       583.57597782
  PAW double counting   =     26318.79239541   -26323.50135783
  entropy T*S    EENTRO =        -0.00208569
  eigenvalues    EBANDS =     -3136.33195081
  atomic energy  EATOM  =      9288.12480467
  ---------------------------------------------------
[...]
  augment    24.23120    22.22269    28.40944    -1.92382    -0.92398     0.66745
  Kinetic  3574.19894  3540.99241  4039.23555     0.75741    -0.84719    -7.59956
  Fock     -285.26846  -283.83257  -263.80653     1.75997     1.05274    -1.80256
  -------------------------------------------------------------------------------------
  Total     -41.56758   -45.06983    -1.35163     0.51897    -0.52711    -0.83769
  in kB     -20.96344   -22.72971    -0.68166     0.26173    -0.26583    -0.42247
  external pressure =      -14.79 kB  Pullay stress =        0.00 kB


 VOLUME and BASIS-vectors are now :
 -----------------------------------------------------------------------------
  energy-cutoff  :      500.00
  volume of cell :     3176.89
      direct lattice vectors                 reciprocal lattice vectors
    13.033854668  0.016256070 -0.012101479     0.076722609  0.000398684 -0.000180323
    -0.063749696 12.272271903  0.009520077    -0.000101858  0.081484167 -0.000247050
     0.046366644  0.060274195 19.861045077     0.000046796 -0.000038815  0.050349826

  length of vectors
    13.033870424 12.272441172 19.861190660     0.076723857  0.081484606  0.050349863


 FORCES acting on ions:
    Electron-Ion                     Ewald-Force                    Non-Local-Force
 -----------------------------------------------------------------------------------------------
   -.117E+02 0.473E+01 -.538E+01   0.121E+02 -.472E+01 0.532E+01   -.318E+00 -.862E-01 0.576E-01
   -.200E+00 0.589E+01 -.118E+01   0.277E+00 -.633E+01 0.116E+01   -.715E-02 0.343E+00 0.261E-01
   -.140E+02 0.220E+01 -.630E+01   0.142E+02 -.219E+01 0.643E+01   -.274E+00 -.223E-01 -.134E+00
   -.131E+02 0.672E+01 -.908E+01   0.141E+02 -.697E+01 0.913E+01   -.105E+01 0.209E+00 -.628E-01
   -.490E+01 0.417E+02 -.138E+02   0.364E+01 -.456E+02 0.135E+02   0.130E+01 0.387E+01 0.312E+00
   0.742E+01 0.987E+01 0.691E+01   -.759E+01 -.101E+02 -.692E+01   0.335E+00 0.325E+00 0.229E-01
   -.324E+01 0.123E+02 -.380E+01   0.316E+01 -.127E+02 0.385E+01   0.122E+00 0.436E+00 -.422E-01
   0.134E+02 -.232E+02 -.198E+02   -.151E+02 0.267E+02 0.195E+02   0.187E+01 -.297E+01 0.373E+00
   0.262E+01 -.986E-01 0.164E+02   -.290E+01 0.687E-01 -.163E+02   0.306E+00 0.554E-01 -.108E+00
   0.841E+01 -.300E+01 0.952E+01   -.905E+01 0.328E+01 -.964E+01   0.558E+00 -.214E+00 0.170E+00
   0.112E+02 -.172E+02 -.760E+02   -.131E+02 0.164E+02 0.779E+02   0.175E+01 0.737E+00 -.201E+01
   -.424E+01 0.692E+01 -.222E+02   0.181E+01 -.978E+01 0.235E+02   0.266E+01 0.273E+01 -.114E+01
   0.240E+01 -.107E+02 0.945E+01   -.245E+01 0.110E+02 -.946E+01   0.289E+00 -.362E+00 0.178E-01
   0.487E+00 -.269E+01 0.198E+02   -.121E+01 0.234E+01 -.202E+02   0.685E+00 0.258E+00 0.380E+00
   -.162E+02 -.299E+02 -.187E+02   0.150E+02 0.337E+02 0.186E+02   0.136E+01 -.416E+01 0.430E-01
   -.124E+01 -.533E+01 -.179E+01   0.134E+01 0.569E+01 0.175E+01   -.641E-01 -.348E+00 0.425E-01
   -.679E+01 -.751E+01 -.720E+01   0.665E+01 0.801E+01 0.732E+01   0.121E+00 -.448E+00 -.127E+00
   -.209E+02 0.630E+00 -.605E+01   0.222E+02 -.334E+00 0.596E+01   -.122E+01 -.268E+00 0.665E-01
   0.127E+02 0.634E+01 0.263E+01   -.131E+02 -.636E+01 -.260E+01   0.384E+00 0.154E-01 -.442E-01
   0.680E+01 0.656E+01 -.374E+01   -.601E+01 -.579E+01 0.391E+01   -.658E+00 -.596E+00 -.173E+00
   0.114E+02 0.715E+01 0.110E+01   -.120E+02 -.750E+01 -.104E+01   0.522E+00 0.228E+00 -.218E-01
   0.273E+01 0.705E+01 0.593E+01   -.315E+01 -.697E+01 -.595E+01   0.367E+00 -.183E+00 0.696E-02
   0.363E+01 0.421E+00 0.130E+02   -.487E+01 -.308E+00 -.131E+02   0.866E+00 -.197E+00 0.955E-01
   0.601E+01 -.298E+01 0.216E+02   -.708E+01 0.378E+01 -.217E+02   0.805E+00 -.497E+00 0.118E+00
   0.223E+02 0.151E+02 0.310E+02   -.214E+02 -.192E+02 -.305E+02   -.949E+00 0.423E+01 -.471E+00
   0.178E+02 -.236E+02 0.219E+02   -.169E+02 0.270E+02 -.217E+02   -.118E+01 -.379E+01 -.288E+00
   0.261E+02 0.119E+02 0.140E+02   -.285E+02 -.109E+02 -.139E+02   0.196E+01 -.634E+00 -.815E-01
   0.210E+01 0.198E+02 0.345E-01   -.101E+01 -.210E+02 0.709E-01   -.924E+00 0.123E+01 -.119E+00
   0.889E+01 0.362E+01 0.503E+01   -.935E+01 -.386E+01 -.498E+01   0.429E+00 0.264E+00 -.385E-01
   0.468E+01 0.723E-01 0.272E+01   -.464E+01 -.239E-01 -.274E+01   0.634E-01 -.400E-01 0.170E-01
   0.826E+01 0.196E+01 0.570E+01   -.860E+01 -.200E+01 -.570E+01   0.277E+00 -.152E-01 0.346E-03
   -.900E+00 0.247E+01 0.333E+01   0.661E+00 -.243E+01 -.330E+01   0.135E+00 -.361E-01 -.358E-01
   -.572E+01 0.234E+01 0.206E+01   0.574E+01 -.242E+01 -.202E+01   -.452E-01 0.215E-01 -.337E-01
   0.401E+01 0.461E+01 0.694E+01   -.424E+01 -.477E+01 -.693E+01   0.174E+00 0.183E+00 -.100E-01
   0.502E+01 0.259E+01 0.156E+02   -.532E+01 -.272E+01 -.157E+02   0.501E+00 0.201E+00 0.395E-01
   0.189E+01 0.467E+00 0.888E+01   -.206E+01 -.502E+00 -.887E+01   0.202E+00 0.104E+00 -.736E-02
   0.204E+01 0.108E+01 0.106E+02   -.254E+01 -.116E+01 -.107E+02   0.333E+00 0.144E+00 0.190E-01
   0.536E+01 0.343E+01 0.144E+02   -.539E+01 -.354E+01 -.143E+02   0.192E+00 0.101E+00 -.543E-01
   0.120E+02 0.279E+01 0.216E+02   -.122E+02 -.320E+01 -.216E+02   0.203E+00 0.327E+00 -.314E-01
   0.484E+01 -.254E+01 0.167E+02   -.522E+01 0.229E+01 -.166E+02   0.197E+00 0.225E+00 -.648E-01
   0.442E+01 -.662E+00 0.177E+02   -.447E+01 0.611E+00 -.178E+02   0.101E+00 0.507E-01 0.278E-01
   0.488E+01 -.399E+01 0.170E+02   -.461E+01 0.398E+01 -.170E+02   -.930E-01 0.207E-02 -.942E-02
   0.634E+01 -.679E+01 0.145E+02   -.577E+01 0.716E+01 -.144E+02   -.244E+00 -.389E+00 -.718E-01
   0.294E+01 -.198E+00 0.189E+02   -.302E+01 0.491E-01 -.189E+02   -.895E-01 0.170E+00 0.115E-01
   0.156E+01 -.214E+01 0.118E+02   -.201E+01 0.221E+01 -.119E+02   0.282E+00 -.128E+00 -.849E-02
   0.438E+01 -.457E+01 0.634E+01   -.450E+01 0.481E+01 -.630E+01   0.137E+00 -.231E+00 -.345E-01
   0.117E+02 -.636E+00 0.476E+01   -.121E+02 0.868E+00 -.472E+01   0.318E+00 -.128E+00 -.459E-01
   0.370E+01 0.381E+00 0.747E+01   -.377E+01 0.118E-01 -.745E+01   0.707E-01 -.466E+00 -.259E-01
   -.575E+01 0.166E-01 0.225E+01   0.585E+01 0.116E+00 -.222E+01   -.606E-01 -.968E-01 -.242E-01
   0.278E+02 -.127E+02 0.808E+01   -.305E+02 0.178E+02 -.789E+01   0.302E+01 -.542E+01 -.143E+00
   0.427E+02 -.255E+02 0.347E+02   -.495E+02 0.249E+02 -.342E+02   0.730E+01 0.478E+00 -.456E+00
   0.429E+02 0.669E+02 0.171E+02   -.477E+02 -.754E+02 -.178E+02   0.483E+01 0.819E+01 0.510E+00
   -.496E+02 0.349E+02 -.550E+02   0.688E+02 -.352E+02 0.575E+02   -.182E+02 0.259E+00 -.258E+01
   -.114E+03 -.213E+02 -.578E+02   0.135E+03 0.227E+02 0.622E+02   -.201E+02 -.136E+01 -.423E+01
   -.120E+03 -.668E+02 -.276E+03   0.140E+03 0.676E+02 0.291E+03   -.192E+02 -.107E+01 -.139E+02
   0.117E+03 0.505E+01 0.615E+02   -.138E+03 -.574E+01 -.618E+02   0.198E+02 0.735E+00 0.313E+00
   -.508E+02 -.892E+01 -.512E+02   0.534E+02 0.838E+01 0.518E+02   -.351E+01 0.115E+01 -.114E-01
   -.243E+02 -.152E+02 0.157E+03   0.268E+02 0.184E+02 -.152E+03   -.196E+01 -.250E+01 -.629E+01
 -----------------------------------------------------------------------------------------------
   0.177E+02 -.548E+00 0.318E+02   0.853E-13 0.853E-13 0.568E-13   -.154E+02 0.618E+00 -.303E+02
 
 
 POSITION                                       TOTAL-FORCE (eV/Angst)
 -----------------------------------------------------------------------------------
      2.95608      0.05296      9.98635         0.092698     -0.071131      0.007792
      0.76042      1.26550      9.95451         0.070757     -0.068484      0.007388
      1.50221      0.04676      9.97238        -0.143377     -0.006805     -0.005856
      3.66891      1.31454     10.00827        -0.099164     -0.032226     -0.010518
      2.90299      2.55292     10.05400         0.100716      0.208154      0.014292
      0.69085      3.71145      9.94023         0.179821      0.146112      0.023024
      1.45922      2.50716      9.98556         0.027569     -0.024869      0.017491
      2.76785      4.95202     10.12825         0.251187      0.338962      0.124358
      0.64991      6.17764      9.91139         0.030003      0.033666      0.005960
      1.36833      4.95287      9.97320        -0.058601      0.051982      0.069778
      3.46773      6.20462     10.32472        -0.024231     -0.066947     -0.222912
      2.74848      7.42789     10.11363         0.375071      0.033787      0.084946
      0.65564      8.64362      9.92466         0.252000     -0.082530      0.019349
      1.34204      7.40830      9.94215        -0.002544     -0.074548      0.100540
      2.84343      9.84040     10.04411         0.179576     -0.580410     -0.057654
      0.70169     11.09367      9.95827         0.029716     -0.006959      0.012019
      1.40588      9.86185      9.98488        -0.019012      0.030039     -0.005798
      3.60968     11.05563      9.99168         0.029187      0.015120     -0.019379
      7.21562     12.29090      9.89590         0.028490      0.005701     -0.006595
      5.13316      1.30593      9.96638         0.093055      0.150160     -0.000992
      5.77486     12.29479      9.93218         0.005458     -0.109049      0.040706
      8.01965      1.24406      9.87399        -0.043612     -0.097223     -0.006427
      7.31260      2.46829      9.87526        -0.339388     -0.092852      0.052002
      8.02686      3.72664      9.82845        -0.234973      0.290721      0.016900
      7.95714      6.17985      9.76730        -0.062850      0.286218      0.031487
      7.99441      8.59676      9.77858        -0.445815     -0.528729     -0.046810
      7.24102      9.83414      9.82881        -0.370565      0.297048      0.005240
      5.07342     11.01516      9.93465         0.110912      0.082143     -0.016177
      7.95608     11.06596      9.86510        -0.019428      0.036848      0.023422
     11.62883      0.04691      9.88702         0.108180      0.006924      0.002435
      9.45730      1.25330      9.86318        -0.042547     -0.057146     -0.000577
     10.12418     12.30912      9.87871        -0.113118      0.006966     -0.007465
     12.35073      1.27392      9.90102        -0.038561     -0.053444      0.002790
     11.60301      2.48717      9.87167        -0.043464      0.035088      0.007826
      9.44763      3.71350      9.82173         0.219127      0.090972     -0.024935
     10.17156      2.48166      9.85012         0.033031      0.075473      0.007151
     12.29815      3.72387      9.87117        -0.159085      0.068274     -0.006489
     11.56724      4.95192      9.83486         0.159741      0.004671      0.008365
      9.40559      6.17434      9.78161         0.025006     -0.059552      0.012131
     10.13986      4.95032      9.80767        -0.187078     -0.015945      0.005407
     12.26625      6.18556      9.84080         0.052687      0.004314      0.007056
     11.55382      7.41251      9.82370         0.167734     -0.007036      0.004620
      9.41420      8.62779      9.80435         0.306599     -0.043204      0.021792
     10.12816      7.40020      9.79381        -0.189075      0.034579     -0.001458
     12.26516      8.65035      9.86148        -0.158766     -0.060906     -0.013633
     11.55549      9.87820      9.86945         0.024684     -0.008165      0.003069
      9.39645     11.08436      9.86324        -0.108847      0.097474      0.004217
     10.12358      9.86815      9.84564        -0.005803     -0.091600     -0.002461
     12.29280     11.10004      9.90382         0.011157      0.036471      0.009192
      5.89440      2.51266      9.94215         0.430683     -0.681481      0.045620
      7.26032      4.93115      9.82169         0.917380     -0.108610      0.025337
      5.81484      9.78081      9.85208         0.271661      0.083109     -0.180349
      3.51753      3.79644     10.16014        -0.583472     -0.031252     -0.247969
      3.47600      8.61005     10.12592        -0.677409     -0.090267     -0.287231
      4.80374      6.21281     10.67129        -0.180802     -0.337017     -0.471866
      7.28890      7.41311      9.72220         0.430508      0.110316      0.134943
      5.39587      4.40035     10.12251        -0.643081      0.377336      0.350590
      5.19880      7.73080      9.55649        -0.019725      0.449763      0.334316
 -----------------------------------------------------------------------------------
    total drift:                                0.399333     -0.128000     -0.305336


--------------------------------------------------------------------------------------------------------



  FREE ENERGIE OF THE ION-ELECTRON SYSTEM (eV)
  ---------------------------------------------------
  free  energy   TOTEN  =      -607.87007860 eV

  energy  without entropy=     -607.86984736  energy(sigma->0) =     -607.86996298
 


--------------------------------------------------------------------------------------------------------


    POTLOK:  cpu time    3.3883: real time    3.3886


--------------------------------------------------------------------------------------------------------


 stress matrix after NEB project (eV)
    -41.56758      0.51928     -0.83769
      0.51897    -45.06983     -0.52064
     -0.82798     -0.52711     -1.35163
  FORCES: max atom, RMS     0.924134    0.341070
  FORCE total and by dimension    2.597513    0.917380
  Stress total and by dimension   61.347005   45.069828
 writing wavefunctions
     LOOP+:  cpu time67153.8861: real time67170.6086
    4ORBIT:  cpu time    0.0000: real time    0.0000
 


 total charge     
 
# of ion       s       p       d       tot
------------------------------------------
    1        0.855   1.708   0.000   2.563
    2        0.864   1.759   0.000   2.623
    3        0.860   1.756   0.000   2.617
    4        0.850   1.723   0.000   2.572
    5        0.850   1.695   0.000   2.545
    6        0.871   1.768   0.000   2.639
    7        0.863   1.767   0.000   2.630
    8        0.867   1.744   0.000   2.611
    9        0.869   1.799   0.000   2.668
   10        0.873   1.804   0.000   2.676
   11        0.860   1.744   0.000   2.604
   12        0.864   1.752   0.000   2.616
   13        0.870   1.771   0.000   2.641
   14        0.873   1.799   0.000   2.673
   15        0.856   1.712   0.000   2.568
   16        0.864   1.762   0.000   2.627
   17        0.864   1.776   0.000   2.640
   18        0.852   1.730   0.000   2.582
   19        0.864   1.755   0.000   2.619
   20        0.855   1.708   0.000   2.563
   21        0.857   1.711   0.000   2.568
   22        0.868   1.771   0.000   2.639
   23        0.875   1.759   0.000   2.634
   24        0.873   1.747   0.000   2.620
   25        0.855   1.692   0.000   2.547
   26        0.866   1.721   0.000   2.587
   27        0.868   1.756   0.000   2.624
   28        0.855   1.700   0.000   2.555
   29        0.866   1.759   0.000   2.625
   30        0.867   1.767   0.000   2.634
   31        0.868   1.773   0.000   2.640
   32        0.867   1.768   0.000   2.635
   33        0.864   1.766   0.000   2.630
   34        0.868   1.773   0.000   2.641
   35        0.871   1.779   0.000   2.650
   36        0.867   1.772   0.000   2.639
   37        0.867   1.778   0.000   2.645
   38        0.868   1.774   0.000   2.642
   39        0.864   1.768   0.000   2.633
   40        0.869   1.776   0.000   2.645
   41        0.872   1.786   0.000   2.658
   42        0.867   1.781   0.000   2.648
   43        0.869   1.787   0.000   2.655
   44        0.871   1.770   0.000   2.641
   45        0.868   1.778   0.000   2.646
   46        0.867   1.773   0.000   2.640
   47        0.867   1.771   0.000   2.637
   48        0.866   1.775   0.000   2.641
   49        0.865   1.767   0.000   2.632
   50        0.871   1.669   0.000   2.540
   51        0.868   1.665   0.000   2.533
   52        0.870   1.643   0.000   2.513
   53        1.230   2.661   0.000   3.891
   54        1.237   2.672   0.000   3.909
   55        1.265   2.542   0.000   3.806
   56        1.236   2.645   0.000   3.880
   57        0.507   0.636   5.984   7.127
   58        0.500   0.737   2.565   3.802
--------------------------------------------------
tot         50.960 103.001   8.549 162.510
 


 magnetization (x)
 
# of ion       s       p       d       tot
------------------------------------------
    1        0.000   0.002   0.000   0.002
    2        0.000   0.005   0.000   0.005
    3       -0.001  -0.008   0.000  -0.009
    4       -0.001  -0.011   0.000  -0.011
    5        0.001   0.006   0.000   0.006
    6       -0.001  -0.007   0.000  -0.007
    7       -0.000  -0.005   0.000  -0.005
    8        0.000  -0.006   0.000  -0.006
    9        0.001   0.008   0.000   0.008
   10        0.000  -0.001   0.000  -0.001
   11        0.001   0.002   0.000   0.003
   12        0.001   0.010   0.000   0.011
   13        0.000   0.004   0.000   0.004
   14       -0.001  -0.015   0.000  -0.016
   15        0.000   0.005   0.000   0.005
   16        0.000   0.005   0.000   0.005
   17       -0.000  -0.007   0.000  -0.007
   18       -0.000   0.002   0.000   0.002
   19        0.001   0.008   0.000   0.009
   20        0.001   0.014   0.000   0.015
   21       -0.002  -0.012   0.000  -0.014
   22       -0.001  -0.006   0.000  -0.007
   23        0.003   0.015   0.000   0.018
   24        0.002   0.002   0.000   0.004
   25        0.001   0.004   0.000   0.004
   26       -0.002  -0.024   0.000  -0.025
   27        0.000   0.001   0.000   0.002
   28        0.001   0.007   0.000   0.007
   29       -0.000  -0.005   0.000  -0.005
   30        0.000   0.001   0.000   0.001
   31       -0.000   0.001   0.000   0.001
   32       -0.000  -0.007   0.000  -0.008
   33       -0.000  -0.004   0.000  -0.004
   34        0.000   0.004   0.000   0.004
   35       -0.001  -0.005   0.000  -0.006
   36       -0.000  -0.007   0.000  -0.007
   37       -0.000  -0.008   0.000  -0.008
   38       -0.000  -0.003   0.000  -0.004
   39       -0.000   0.004   0.000   0.004
   40        0.000   0.005   0.000   0.005
   41       -0.000  -0.005   0.000  -0.005
   42        0.000   0.007   0.000   0.007
   43        0.001   0.008   0.000   0.009
   44       -0.002  -0.021   0.000  -0.023
   45       -0.001  -0.012   0.000  -0.013
   46        0.000   0.005   0.000   0.005
   47        0.000   0.004   0.000   0.004
   48       -0.000  -0.003   0.000  -0.003
   49       -0.000  -0.007   0.000  -0.007
   50       -0.015  -0.078   0.000  -0.093
   51       -0.013  -0.057   0.000  -0.070
   52        0.002   0.007   0.000   0.009
   53       -0.005  -0.042   0.000  -0.048
   54        0.002   0.018   0.000   0.020
   55        0.002   0.015   0.000   0.016
   56        0.001   0.005   0.000   0.006
   57        0.039   0.019   2.910   2.968
   58       -0.024  -0.011  -0.604  -0.639
--------------------------------------------------
tot         -0.011  -0.174   2.306   2.121
 

 total amount of memory used by VASP MPI-rank0   189647. kBytes
=======================================================================

   base      :      30000. kBytes
   nonl-proj :       5322. kBytes
   fftplans  :      13453. kBytes
   grid      :      34560. kBytes
   one-center:         62. kBytes
   HF        :         23. kBytes
   nonlr-proj:      29796. kBytes
   wavefun   :      76431. kBytes
 
  
  
 General timing and accounting informations for this job:
 ========================================================
  
                  Total CPU time used (sec):    67242.297
                            User time (sec):    67158.489
                          System time (sec):       83.810
                         Elapsed time (sec):    67260.658
  
                   Maximum memory used (kb):      425552.
                   Average memory used (kb):           0.
  
                          Minor page faults:       523942
                          Major page faults:            9
                 Voluntary context switches:         1383
