 vasp.5.4.4.18Apr17-6-g9f103f2a35 (build Feb 25 2019 10:51:38) complex          
  
 executed on             LinuxIFC date 2021.08.09  13:46:15
 running on   32 total cores
 distrk:  each k-point on   32 cores,    1 groups
 distr:  one band on NCORES_PER_BAND=  32 cores,    1 groups


--------------------------------------------------------------------------------------------------------


 INCAR:
 POTCAR:    PAW_PBE C 08Apr2002                   
 POTCAR:    PAW_PBE N 08Apr2002                   
 POTCAR:    PAW_PBE Fe 06Sep2000                  
 POTCAR:    PAW_PBE Sc_sv 07Sep2000               

 ----------------------------------------------------------------------------- 
|                                                                             |
|           W    W    AA    RRRRR   N    N  II  N    N   GGGG   !!!           |
|           W    W   A  A   R    R  NN   N  II  NN   N  G    G  !!!           |
|           W    W  A    A  R    R  N N  N  II  N N  N  G       !!!           |
|           W WW W  AAAAAA  RRRRR   N  N N  II  N  N N  G  GGG   !            |
|           WW  WW  A    A  R   R   N   NN  II  N   NN  G    G                |
|           W    W  A    A  R    R  N    N  II  N    N   GGGG   !!!           |
|                                                                             |
|      For optimal performance we recommend to set                            |
|        NCORE= 4 - approx SQRT( number of cores)                             |
|      NCORE specifies how many cores store one orbital (NPAR=cpu/NCORE).     |
|      This setting can  greatly improve the performance of VASP for DFT.     |
|      The default,   NCORE=1            might be grossly inefficient         |
|      on modern multi-core architectures or massively parallel machines.     |
|      Do your own testing !!!!                                               |
|      Unfortunately you need to use the default for GW and RPA calculations. |
|      (for HF NCORE is supported but not extensively tested yet)             |
|                                                                             |
 ----------------------------------------------------------------------------- 

 POTCAR:    PAW_PBE C 08Apr2002                   
   VRHFIN =C: s2p2                                                              
   LEXCH  = PE                                                                  
   EATOM  =   147.1560 eV,   10.8157 Ry                                         
                                                                                
   TITEL  = PAW_PBE C 08Apr2002                                                 
   LULTRA =        F    use ultrasoft PP ?                                      
   IUNSCR =        1    unscreen: 0-lin 1-nonlin 2-no                           
   RPACOR =    1.200    partial core radius                                     
   POMASS =   12.011; ZVAL   =    4.000    mass and valenz                      
   RCORE  =    1.500    outmost cutoff radius                                   
   RWIGS  =    1.630; RWIGS  =    0.863    wigner-seitz radius (au A)           
   ENMAX  =  400.000; ENMIN  =  300.000 eV                                      
   ICORE  =        2    local potential                                         
   LCOR   =        T    correct aug charges                                     
   LPAW   =        T    paw PP                                                  
   EAUG   =  644.873                                                            
   DEXC   =    0.000                                                            
   RMAX   =    1.529    core radius for proj-oper                               
   RAUG   =    1.300    factor for augmentation sphere                          
   RDEP   =    1.501    radius for radial grids                                 
   RDEPT  =    1.300    core radius for aug-charge                              
                                                                                
   Atomic configuration                                                         
    4 entries                                                                   
     n  l   j            E        occ.                                          
     1  0  0.50      -273.3789   2.0000                                         
     2  0  0.50       -13.7508   2.0000                                         
     2  1  0.50        -5.2854   2.0000                                         
     3  2  1.50        -5.4423   0.0000                                         
   Description                                                                  
     l       E           TYP  RCUT    TYP  RCUT                                 
     0    -13.7508458     23  1.200                                             
     0     -8.2022199     23  1.200                                             
     1     -5.2854383     23  1.500                                             
     1     34.0145650     23  1.500                                             
     2     -5.4423304      7  1.500                                             
  local pseudopotential read in
  partial core-charges read in
  partial kinetic energy density read in
  atomic valenz-charges read in
  non local Contribution for L=           0  read in
    real space projection operators read in
  non local Contribution for L=           0  read in
    real space projection operators read in
  non local Contribution for L=           1  read in
    real space projection operators read in
  non local Contribution for L=           1  read in
    real space projection operators read in
    PAW grid and wavefunctions read in
 
   number of l-projection  operators is LMAX  =           4
   number of lm-projection operators is LMMAX =           8
 
 POTCAR:    PAW_PBE N 08Apr2002                   
   VRHFIN =N: s2p3                                                              
   LEXCH  = PE                                                                  
   EATOM  =   264.5486 eV,   19.4438 Ry                                         
                                                                                
   TITEL  = PAW_PBE N 08Apr2002                                                 
   LULTRA =        F    use ultrasoft PP ?                                      
   IUNSCR =        1    unscreen: 0-lin 1-nonlin 2-no                           
   RPACOR =    1.200    partial core radius                                     
   POMASS =   14.001; ZVAL   =    5.000    mass and valenz                      
   RCORE  =    1.500    outmost cutoff radius                                   
   RWIGS  =    1.400; RWIGS  =    0.741    wigner-seitz radius (au A)           
   ENMAX  =  400.000; ENMIN  =  300.000 eV                                      
   ICORE  =        2    local potential                                         
   LCOR   =        T    correct aug charges                                     
   LPAW   =        T    paw PP                                                  
   EAUG   =  627.112                                                            
   DEXC   =    0.000                                                            
   RMAX   =    1.529    core radius for proj-oper                               
   RAUG   =    1.300    factor for augmentation sphere                          
   RDEP   =    1.514    radius for radial grids                                 
   RDEPT  =    1.338    core radius for aug-charge                              
                                                                                
   Atomic configuration                                                         
    4 entries                                                                   
     n  l   j            E        occ.                                          
     1  0  0.50      -384.7179   2.0000                                         
     2  0  0.50       -18.5828   2.0000                                         
     2  1  0.50        -7.0898   3.0000                                         
     3  2  1.50        -6.8029   0.0000                                         
   Description                                                                  
     l       E           TYP  RCUT    TYP  RCUT                                 
     0    -18.5828119     23  1.200                                             
     0    -13.5018863     23  1.200                                             
     1     -7.0897853     23  1.500                                             
     1      9.5240782     23  1.500                                             
     2     -6.8029130      7  1.500                                             
  local pseudopotential read in
  partial core-charges read in
  partial kinetic energy density read in
  atomic valenz-charges read in
  non local Contribution for L=           0  read in
    real space projection operators read in
  non local Contribution for L=           0  read in
    real space projection operators read in
  non local Contribution for L=           1  read in
    real space projection operators read in
  non local Contribution for L=           1  read in
    real space projection operators read in
    PAW grid and wavefunctions read in
 
   number of l-projection  operators is LMAX  =           4
   number of lm-projection operators is LMMAX =           8
 
 POTCAR:    PAW_PBE Fe 06Sep2000                  
   VRHFIN =Fe:  d7 s1                                                           
   LEXCH  = PE                                                                  
   EATOM  =   594.3153 eV,   43.6809 Ry                                         
                                                                                
   TITEL  = PAW_PBE Fe 06Sep2000                                                
   LULTRA =        F    use ultrasoft PP ?                                      
   IUNSCR =        1    unscreen: 0-lin 1-nonlin 2-no                           
   RPACOR =    2.000    partial core radius                                     
   POMASS =   55.847; ZVAL   =    8.000    mass and valenz                      
   RCORE  =    2.300    outmost cutoff radius                                   
   RWIGS  =    2.460; RWIGS  =    1.302    wigner-seitz radius (au A)           
   ENMAX  =  267.882; ENMIN  =  200.911 eV                                      
   RCLOC  =    1.701    cutoff for local pot                                    
   LCOR   =        T    correct aug charges                                     
   LPAW   =        T    paw PP                                                  
   EAUG   =  511.368                                                            
   DEXC   =    0.000                                                            
   RMAX   =    2.356    core radius for proj-oper                               
   RAUG   =    1.300    factor for augmentation sphere                          
   RDEP   =    2.442    radius for radial grids                                 
   RDEPT  =    1.890    core radius for aug-charge                              
                                                                                
   Atomic configuration                                                         
    9 entries                                                                   
     n  l   j            E        occ.                                          
     1  0  0.50     -6993.8440   2.0000                                         
     2  0  0.50      -814.6047   2.0000                                         
     2  1  1.50      -693.3689   6.0000                                         
     3  0  0.50       -89.4732   2.0000                                         
     3  1  1.50       -55.6373   6.0000                                         
     3  2  2.50        -3.8151   7.0000                                         
     4  0  0.50        -4.2551   1.0000                                         
     4  1  1.50        -3.4015   0.0000                                         
     4  3  2.50        -1.3606   0.0000                                         
   Description                                                                  
     l       E           TYP  RCUT    TYP  RCUT                                 
     2     -3.8151135     23  2.300                                             
     2     -5.1756961     23  2.300                                             
     0     -4.2550963     23  2.300                                             
     0      7.2035603     23  2.300                                             
     1     -2.7211652     23  2.300                                             
     1     18.4316424     23  2.300                                             
  local pseudopotential read in
  partial core-charges read in
  partial kinetic energy density read in
  atomic valenz-charges read in
  non local Contribution for L=           2  read in
    real space projection operators read in
  non local Contribution for L=           2  read in
    real space projection operators read in
  non local Contribution for L=           0  read in
    real space projection operators read in
  non local Contribution for L=           0  read in
    real space projection operators read in
  non local Contribution for L=           1  read in
    real space projection operators read in
  non local Contribution for L=           1  read in
    real space projection operators read in
    PAW grid and wavefunctions read in
 
   number of l-projection  operators is LMAX  =           6
   number of lm-projection operators is LMMAX =          18
 
 POTCAR:    PAW_PBE Sc_sv 07Sep2000               
   VRHFIN =Sc: 3p4s3d                                                           
   LEXCH  = PE                                                                  
   EATOM  =  1273.2868 eV,   93.5839 Ry                                         
                                                                                
   TITEL  = PAW_PBE Sc_sv 07Sep2000                                             
   LULTRA =        F    use ultrasoft PP ?                                      
   IUNSCR =        1    unscreen: 0-lin 1-nonlin 2-no                           
   RPACOR =    2.200    partial core radius                                     
   POMASS =   44.956; ZVAL   =   11.000    mass and valenz                      
   RCORE  =    2.500    outmost cutoff radius                                   
   RWIGS  =    2.700; RWIGS  =    1.429    wigner-seitz radius (au A)           
   ENMAX  =  222.660; ENMIN  =  166.995 eV                                      
   RCLOC  =    1.805    cutoff for local pot                                    
   LCOR   =        T    correct aug charges                                     
   LPAW   =        T    paw PP                                                  
   EAUG   =  443.063                                                            
   RMAX   =    2.551    core radius for proj-oper                               
   RAUG   =    1.300    factor for augmentation sphere                          
   RDEP   =    2.650    radius for radial grids                                 
   RDEPT  =    2.038    core radius for aug-charge                              
                                                                                
   Atomic configuration                                                         
    8 entries                                                                   
     n  l   j            E        occ.                                          
     1  0  0.50     -4394.2533   2.0000                                         
     2  0  0.50      -471.0040   2.0000                                         
     2  1  1.50      -384.9788   6.0000                                         
     3  0  0.50       -52.1410   2.0000                                         
     4  0  0.50        -3.5584   1.0000                                         
     3  1  1.50       -30.8841   6.0000                                         
     3  2  2.50        -1.3655   2.0000                                         
     4  3  2.50        -1.3606   0.0000                                         
   Description                                                                  
     l       E           TYP  RCUT    TYP  RCUT                                 
     0    -52.1409870     23  1.800                                             
     0     -3.5583698     23  2.500                                             
     1    -30.8840697     23  2.300                                             
     1      4.0817478     23  2.300                                             
     2     -1.3655397     23  2.500                                             
     2      0.3564476     23  2.500                                             
  local pseudopotential read in
  partial core-charges read in
  partial kinetic energy density read in
  atomic valenz-charges read in
  non local Contribution for L=           0  read in
    real space projection operators read in
  non local Contribution for L=           0  read in
    real space projection operators read in
  non local Contribution for L=           1  read in
    real space projection operators read in
  non local Contribution for L=           1  read in
    real space projection operators read in
  non local Contribution for L=           2  read in
    real space projection operators read in
  non local Contribution for L=           2  read in
    real space projection operators read in
    PAW grid and wavefunctions read in
 
   number of l-projection  operators is LMAX  =           6
   number of lm-projection operators is LMMAX =          18
 

 ----------------------------------------------------------------------------- 
|                                                                             |
|  ADVICE TO THIS USER RUNNING 'VASP/VAMP'   (HEAR YOUR MASTER'S VOICE ...):  |
|                                                                             |
|      You have a (more or less) 'large supercell' and for larger cells       |
|      it might be more efficient to use real space projection opertators     |
|      So try LREAL= Auto  in the INCAR   file.                               |
|      Mind:          For very  accurate calculation you might also keep the  |
|      reciprocal projection scheme          (i.e. LREAL=.FALSE.)             |
|                                                                             |
 ----------------------------------------------------------------------------- 

  PAW_PBE C 08Apr2002                   :
 energy of atom  1       EATOM= -147.1560
 kinetic energy error for atom=    0.0076 (will be added to EATOM!!)
  PAW_PBE N 08Apr2002                   :
 energy of atom  2       EATOM= -264.5486
 kinetic energy error for atom=    0.0138 (will be added to EATOM!!)
  PAW_PBE Fe 06Sep2000                  :
 energy of atom  3       EATOM= -594.3153
 kinetic energy error for atom=    0.0026 (will be added to EATOM!!)
  PAW_PBE Sc_sv 07Sep2000               :
 energy of atom  4       EATOM=-1273.2868
 kinetic energy error for atom=    0.0031 (will be added to EATOM!!)
 
 
 POSCAR:  C  N Fe Sc                             
  positions in cartesian coordinates
  No initial velocities read in
 exchange correlation table for  LEXCH =        8
   RHO(1)=    0.500       N(1)  =     2000
   RHO(2)=  100.500       N(2)  =     4000

 VTST: version 3.2, (02/03/18)

 CHAIN: initializing optimizer
 
 OPT: Using VASP Conjugate-Gradient optimizer
 CHAIN: Read ICHAIN            0
 
 POSCAR:  C  N Fe Sc                             
  positions in cartesian coordinates
  No initial velocities read in
 


--------------------------------------------------------------------------------------------------------


 ion  position               nearest neighbor table
   1  0.222  0.998  0.500-   4 1.42  19 1.43   3 1.43
   2  0.053  0.100  0.503-   7 1.42  34 1.43   3 1.43
   3  0.110  1.000  0.502-  17 1.42   2 1.43   1 1.43
   4  0.275  0.098  0.497-   5 1.42   1 1.42  21 1.43
   5  0.217  0.197  0.497-   8 1.41   4 1.42   7 1.42
   6  0.052  0.301  0.502-   7 1.42  11 1.43  38 1.43
   7  0.106  0.200  0.501-   2 1.42   6 1.42   5 1.42
   8  0.272  0.295  0.492-  51 1.37   5 1.41   9 1.43
   9  0.219  0.398  0.494-  50 1.40  11 1.42   8 1.43
  10  0.056  0.501  0.503-  11 1.41  41 1.43  14 1.44
  11  0.109  0.399  0.500-  10 1.41   9 1.42   6 1.43
  12  0.229  0.594  0.498-  50 1.39  14 1.45  15 1.47
  13  0.060  0.700  0.504-  18 1.42  14 1.43  45 1.44
  14  0.116  0.599  0.502-  13 1.43  10 1.44  12 1.45
  15  0.289  0.694  0.501-  53 1.41  16 1.45  12 1.47
  16  0.228  0.795  0.502-  19 1.43  18 1.44  15 1.45
  17  0.057  0.900  0.504-   3 1.42  49 1.43  18 1.44
  18  0.115  0.798  0.503-  13 1.42  17 1.44  16 1.44
  19  0.280  0.897  0.500-   1 1.43  28 1.43  16 1.43
  20  0.554  0.004  0.497-  30 1.42  22 1.42  23 1.44
  21  0.386  0.099  0.494-  22 1.42   4 1.43  25 1.44
  22  0.444  1.000  0.497-  21 1.42  20 1.42  28 1.44
  23  0.607  0.106  0.496-  32 1.43  24 1.43  20 1.44
  24  0.550  0.207  0.489-  23 1.43  25 1.45  26 1.46
  25  0.437  0.202  0.489-  51 1.36  21 1.44  24 1.45
  26  0.604  0.310  0.489-  52 1.35  36 1.46  24 1.46
  27  0.560  0.801  0.502-  54 1.37  30 1.43  29 1.45
  28  0.391  0.898  0.499-  19 1.43  29 1.43  22 1.44
  29  0.446  0.796  0.501-  53 1.40  28 1.43  27 1.45
  30  0.611  0.903  0.501-  20 1.42  47 1.43  27 1.43
  31  0.888  0.003  0.504-  34 1.42  49 1.43  33 1.43
  32  0.719  0.107  0.500-  23 1.43  33 1.44  37 1.44
  33  0.776  0.005  0.502-  47 1.42  31 1.43  32 1.44
  34  0.941  0.103  0.504-  31 1.42   2 1.43  35 1.43
  35  0.884  0.205  0.504-  38 1.43  34 1.43  37 1.44
  36  0.716  0.311  0.501-  37 1.44  26 1.46  40 1.46
  37  0.772  0.208  0.502-  32 1.44  35 1.44  36 1.44
  38  0.940  0.304  0.504-  39 1.43  35 1.43   6 1.43
  39  0.885  0.406  0.505-  38 1.43  41 1.44  40 1.45
  40  0.773  0.411  0.507-  55 1.38  39 1.45  36 1.46
  41  0.945  0.503  0.506-  42 1.42  10 1.43  39 1.44
  42  0.890  0.605  0.507-  41 1.42  44 1.42  45 1.42
  43  0.724  0.707  0.507-  54 1.38  48 1.42  44 1.43
  44  0.780  0.605  0.510-  55 1.39  42 1.42  43 1.43
  45  0.948  0.702  0.506-  46 1.42  42 1.42  13 1.44
  46  0.891  0.803  0.506-  45 1.42  49 1.42  48 1.43
  47  0.723  0.905  0.502-  33 1.42  48 1.42  30 1.43
  48  0.780  0.805  0.505-  43 1.42  47 1.42  46 1.43
  49  0.946  0.903  0.504-  46 1.42  31 1.43  17 1.43
  50  0.277  0.492  0.489-  12 1.39   9 1.40  56 1.95
  51  0.378  0.295  0.484-  25 1.36   8 1.37  56 1.94
  52  0.552  0.405  0.480-  26 1.35  56 1.84  57 2.00
  53  0.398  0.695  0.504-  29 1.40  15 1.41  57 2.60
  54  0.617  0.706  0.504-  27 1.37  43 1.38  57 2.12
  55  0.722  0.511  0.513-  40 1.38  44 1.39  57 2.27
  56  0.415  0.441  0.460-  52 1.84  51 1.94  50 1.95  57 2.54
  57  0.549  0.553  0.522-  52 2.00  54 2.12  55 2.27  56 2.54  53 2.60
 
  LATTYP: Found a triclinic cell.
 ALAT       =    12.3134515889
 B/A-ratio  =     1.0417655486
 C/A-ratio  =     1.6338063665
 COS(alpha) =     0.0006141404
 COS(beta)  =     0.0010991464
 COS(gamma) =     0.0223861696
  
  Lattice vectors:
  
 A1 = (   0.1382734090,  12.3126736507,  -0.0061698968)
 A2 = (  12.8269307909,   0.1431318798,  -0.0027777230)
 A3 = (   0.0078660486,   0.0119444110, -20.1177905161)


Analysis of symmetry for initial positions (statically):
=====================================================================
 Subroutine PRICEL returns:
 Original cell was already a primitive cell.
 

 Routine SETGRP: Setting up the symmetry group for a 
 triclinic supercell.


 Subroutine GETGRP returns: Found  1 space group operations
 (whereof  1 operations were pure point group operations)
 out of a pool of  2 trial point group operations.


The static configuration has the point symmetry C_1 .


Analysis of symmetry for dynamics (positions and initial velocities):
=====================================================================
 Subroutine PRICEL returns:
 Original cell was already a primitive cell.
 

 Routine SETGRP: Setting up the symmetry group for a 
 triclinic supercell.


 Subroutine GETGRP returns: Found  1 space group operations
 (whereof  1 operations were pure point group operations)
 out of a pool of  2 trial point group operations.


The dynamic configuration has the point symmetry C_1 .


Analysis of structural, dynamic, and magnetic symmetry:
=====================================================================
 Subroutine PRICEL returns:
 Original cell was already a primitive cell.
 

 Routine SETGRP: Setting up the symmetry group for a 
 triclinic supercell.


 Subroutine GETGRP returns: Found  1 space group operations
 (whereof  1 operations were pure point group operations)
 out of a pool of  2 trial point group operations.


The magnetic configuration has the point symmetry C_1 .


 Subroutine INISYM returns: Found  1 space group operations
 (whereof  1 operations are pure point group operations),
 and found     1 'primitive' translations

 
 
 KPOINTS: KPOINTS created by Atomic Simulation Env

Automatic generation of k-mesh.
Space group operators:
 irot       det(A)        alpha          n_x          n_y          n_z        tau_x        tau_y        tau_z
    1     1.000000     0.000001     1.000000     0.000000     0.000000     0.000000     0.000000     0.000000
 
 Subroutine IBZKPT returns following result:
 ===========================================
 
 Found      2 irreducible k-points:
 
 Following reciprocal coordinates:
            Coordinates               Weight
  0.250000  0.250000  0.000000      2.000000
 -0.250000  0.250000 -0.000000      2.000000
 
 Following cartesian coordinates:
            Coordinates               Weight
  0.019266  0.020088  0.000019      2.000000
 -0.019719  0.020526  0.000004      2.000000
 
 
 Subroutine IBZKPT_HF returns following result:
 ==============================================
 
 Found      4 k-points in 1st BZ
 the following      4 k-points will be used (e.g. in the exchange kernel)
 Following reciprocal coordinates:   # in IRBZ
  0.250000  0.250000  0.000000    0.25000000   1 t-inv F
 -0.250000  0.250000 -0.000000    0.25000000   2 t-inv F
 -0.250000 -0.250000 -0.000000    0.25000000   1 t-inv T
  0.250000 -0.250000  0.000000    0.25000000   2 t-inv T


--------------------------------------------------------------------------------------------------------




 Dimension of arrays:
   k-points           NKPTS =      2   k-points in BZ     NKDIM =      4   number of bands    NBANDS=    155
   number of dos      NEDOS =    301   number of ions     NIONS =     57
   non local maximal  LDIM  =      6   non local SUM 2l+1 LMDIM =     18
   total plane-waves  NPLWV = ******
   max r-space proj   IRMAX =      1   max aug-charges    IRDMAX=  18216
   dimension x,y,z NGX =    96 NGY =   90 NGZ =  150
   dimension x,y,z NGXF=   192 NGYF=  180 NGZF=  300
   support grid    NGXF=   192 NGYF=  180 NGZF=  300
   ions per type =              49   6   1   1
   NGX,Y,Z   is equivalent  to a cutoff of  12.44, 12.15, 12.40 a.u.
   NGXF,Y,Z  is equivalent  to a cutoff of  24.88, 24.30, 24.79 a.u.

 SYSTEM =  unknown system                          
 POSCAR =   C  N Fe Sc                             

 Startparameter for this run:
   NWRITE =      2    write-flag & timer
   PREC   = accura    normal or accurate (medium, high low for compatibility)
   ISTART =      1    job   : 0-new  1-cont  2-samecut
   ICHARG =      0    charge: 1-file 2-atom 10-const
   ISPIN  =      2    spin polarized calculation?
   LNONCOLLINEAR =      F non collinear calculations
   LSORBIT =      F    spin-orbit coupling
   INIWAV =      1    electr: 0-lowe 1-rand  2-diag
   LASPH  =      T    aspherical Exc in radial PAW
   METAGGA=      F    non-selfconsistent MetaGGA calc.

 Electronic Relaxation 1
   ENCUT  =  500.0 eV  36.75 Ry    6.06 a.u.  23.39 22.45 36.68*2*pi/ulx,y,z
   ENINI  =  500.0     initial cutoff
   ENAUG  =  644.9 eV  augmentation charge cutoff
   NELM   =    250;   NELMIN=  2; NELMDL=  0     # of ELM steps 
   EDIFF  = 0.1E-03   stopping-criterion for ELM
   LREAL  =      F    real-space projection
   NLSPLINE    = F    spline interpolate recip. space projectors
   LCOMPAT=      F    compatible to vasp.4.4
   GGA_COMPAT  = T    GGA compatible to vasp.4.4-vasp.4.6
   LMAXPAW     = -100 max onsite density
   LMAXMIX     =    2 max onsite mixed and CHGCAR
   VOSKOWN=      0    Vosko Wilk Nusair interpolation
   ROPT   =    0.00000   0.00000   0.00000   0.00000
 Ionic relaxation
   EDIFFG = -.3E-01   stopping-criterion for IOM
   NSW    =      0    number of steps for IOM
   NBLOCK =      1;   KBLOCK =      1    inner block; outer block 
   IBRION =     -1    ionic relax: 0-MD 1-quasi-New 2-CG
   NFREE  =      1    steps in history (QN), initial steepest desc. (CG)
   ISIF   =      2    stress and relaxation
   IWAVPR =     10    prediction:  0-non 1-charg 2-wave 3-comb
   ISYM   =      3    0-nonsym 1-usesym 2-fastsym
   LCORR  =      T    Harris-Foulkes like correction to forces

   POTIM  = 0.5000    time-step for ionic-motion
   TEIN   =    0.0    initial temperature
   TEBEG  =    0.0;   TEEND  =   0.0 temperature during run
   SMASS  =  -3.00    Nose mass-parameter (am)
   estimated Nose-frequenzy (Omega)   =  0.10E-29 period in steps =****** mass=  -0.376E-26a.u.
   SCALEE = 1.0000    scale energy and forces
   NPACO  =    256;   APACO  = 16.0  distance and # of slots for P.C.
   PSTRESS=    0.0 pullay stress

  Mass of Ions in am
   POMASS =  12.01 14.00 55.85 44.96
  Ionic Valenz
   ZVAL   =   4.00  5.00  8.00 11.00
  Atomic Wigner-Seitz radii
   RWIGS  =  -1.00 -1.00 -1.00 -1.00
  virtual crystal weights 
   VCA    =   1.00  1.00  1.00  1.00
   NELECT =     245.0000    total number of electrons
   NUPDOWN=      -1.0000    fix difference up-down

 DOS related values:
   EMIN   =  10.00;   EMAX   =-10.00  energy-range for DOS
   EFERMI =   0.00
   ISMEAR =     0;   SIGMA  =   0.10  broadening in eV -4-tet -1-fermi 0-gaus

 Electronic relaxation 2 (details)
   IALGO  =     53    algorithm
   LDIAG  =      T    sub-space diagonalisation (order eigenvalues)
   LSUBROT=      F    optimize rotation matrix (better conditioning)
   TURBO    =      0    0=normal 1=particle mesh
   IRESTART =      0    0=no restart 2=restart with 2 vectors
   NREBOOT  =      0    no. of reboots
   NMIN     =      0    reboot dimension
   EREF     =   0.00    reference energy to select bands
   IMIX   =      4    mixing-type and parameters
     AMIX     =   0.40;   BMIX     =  1.00
     AMIX_MAG =   1.60;   BMIX_MAG =  1.00
     AMIN     =   0.10
     WC   =   100.;   INIMIX=   1;  MIXPRE=   1;  MAXMIX= -45

 Intra band minimization:
   WEIMIN = 0.0000     energy-eigenvalue tresh-hold
   EBREAK =  0.16E-06  absolut break condition
   DEPER  =   0.30     relativ break condition  

   TIME   =   0.20     timestep for ELM

  volume/ion in A,a.u.               =      55.73       376.12
  Fermi-wavevector in a.u.,A,eV,Ry     =   0.696835  1.316827  6.606703  0.485579
  Thomas-Fermi vector in A             =   1.779995
 
 Write flags
   LWAVE        =      T    write WAVECAR
   LDOWNSAMPLE  =      F    k-point downsampling of WAVECAR
   LCHARG       =      T    write CHGCAR
   LVTOT        =      F    write LOCPOT, total local potential
   LVHAR        =      F    write LOCPOT, Hartree potential only
   LELF         =      F    write electronic localiz. function (ELF)
   LORBIT       =     11    0 simple, 1 ext, 2 COOP (PROOUT), +10 PAW based schemes


 Dipole corrections
   LMONO  =      F    monopole corrections only (constant potential shift)
   LDIPOL =      T    correct potential (dipole corrections)
   IDIPOL =      3    1-x, 2-y, 3-z, 4-all directions 
   EPSILON=  1.0000000 bulk dielectric constant

 Exchange correlation treatment:
   GGA     =    PE    GGA type
   LEXCH   =     8    internal setting for exchange type
   VOSKOWN=      0    Vosko Wilk Nusair interpolation
   EXXOEP  =     0    0=HF, 1=EXX-LHF (local Hartree Fock) 2=EXX OEP
   LHFCALC =     T    Hartree Fock is set to
   LSYMGRAD=     F    symmetrize gradient (conserves proper symmetry)
   PRECFOCK=normal    Normal, Fast or Accurate (Low or Medium for compatibility)
   LRHFCALC=     F    long range Hartree Fock
   LRSCOR  =     F    long range correlation only (use DFT for short range part)
   LTHOMAS =     F    Thomas Fermi screening in HF
   LMODELHF=     F    short range full HF, long range fraction AEXX
   ENCUT4O =  -1.0   cutoff for four orbital integrals eV
   LMAXFOCK=     4    L truncation for augmentation on plane wave grid
   LMAXFOCKAE=  -1    L truncation for all-electron charge restoration on plane wave grid
   NMAXFOCKAE=   1    number of basis functions for all-electron charge restoration
   LFOCKAEDFT=     F  apply the AE augmentation even for DFT
   NKREDX  =     1    reduce k-point grid by
   NKREDY  =     1    reduce k-point grid by
   NKREDZ  =     1    reduce k-point grid by
   SHIFTRED=     F    shift reduced grid of Gamma
   HFKIDENT=     F    idential grid for each k-point
   ODDONLY =     F    use only odd q-grid points
   EVENONLY=     F    use only even q-grid points
   HFALPHA =   -1.0000 decay constant for conv. correction
   MCALPHA =    0.0000 extent of test-charge in conv. correction in multipole expansion
   AEXX    =    0.2500 exact exchange contribution
   HFSCREEN=    0.2000 screening length (either q_TF or 0.3 A-1)
   HFSCREENC=   0.2000 screening length for correlation (either q_TF or 0.3 A-1)
   HFRCUT  =    0.0000 spherical cutoff for potential kernel
   ALDAX   =    0.7500 LDA exchange part
   AGGAX   =    0.7500 GGA exchange part
   ALDAC   =    1.0000 LDA correlation
   AGGAC   =    1.0000 GGA correlation
   ENCUTFOCK=  -1.0 apply spherical cutoff to Coloumb kernel
   NBANDSGWLOW=     1    first orbital included in HF term
   NBLOCK_FOCK=    64    blocking factor in FOCK_ACC
 Linear response parameters
   LEPSILON=     F    determine dielectric tensor
   LRPA    =     F    only Hartree local field effects (RPA)
   LNABLA  =     F    use nabla operator in PAW spheres
   LVEL    =     F    velocity operator in full k-point grid
   LINTERFAST=   F  fast interpolation
   KINTER  =     0    interpolate to denser k-point grid
   CSHIFT  =0.1000    complex shift for real part using Kramers Kronig
   OMEGAMAX=  -1.0    maximum frequency
   DEG_THRESHOLD= 0.2000000E-02 threshold for treating states as degnerate
   RTIME   =   -0.100 relaxation time in fs
  (WPLASMAI=    0.000 imaginary part of plasma frequency in eV, 0.658/RTIME)
   DFIELD  = 0.0000000 0.0000000 0.0000000 field for delta impulse in time
 
 Orbital magnetization related:
   ORBITALMAG=     F  switch on orbital magnetization
   LCHIMAG   =     F  perturbation theory with respect to B field
   DQ        =  0.001000  dq finite difference perturbation B field
   LLRAUG    =     F  two centre corrections for induced B field



--------------------------------------------------------------------------------------------------------


 Static calculation
 charge density and potential will be updated during run
 spin polarized calculation
 Conjugate gradient for all bands (Freysoldt, et al. PRB 79, 241103 (2009))
 perform sub-space diagonalisation
    before iterative eigenvector-optimisation
 modified Broyden-mixing scheme, WC =      100.0
 initial mixing is a Kerker type mixing with AMIX =  0.4000 and BMIX =      1.0000
 Hartree-type preconditioning will be used
 using additional bands           32
 reciprocal scheme for non local part
 use partial core corrections
 no Harris-corrections to forces 
 use gradient corrections 
 use of overlap-Matrix (Vanderbilt PP)
 Gauss-broadening in eV      SIGMA  =   0.10


--------------------------------------------------------------------------------------------------------


  energy-cutoff  :      500.00
  volume of cell :     3176.88
      direct lattice vectors                 reciprocal lattice vectors
    12.826930791  0.143131880 -0.002777723     0.077970750 -0.000875610  0.000029967
     0.138273409 12.312673651 -0.006169897    -0.000906381  0.081227331  0.000047872
    -0.007866049 -0.011944411 20.117790516     0.000010488  0.000024791  0.049707267

  length of vectors
    12.827729650 12.313451589 20.117795600     0.077975672  0.081232402  0.049707274


 
 old parameters found on file WAVECAR:
  energy-cutoff  :      500.00
  volume of cell :     3176.88
      direct lattice vectors                 reciprocal lattice vectors
    12.810000000  0.000000000  0.000000000     0.078064012  0.000000000  0.000000000
     0.000000000 12.400000000  0.000000000     0.000000000  0.080645161  0.000000000
     0.000000000  0.000000000 20.000000000     0.000000000  0.000000000  0.050000000

  length of vectors

 
 k-points in units of 2pi/SCALE and weight: KPOINTS created by Atomic Simulation Env
   0.01926609  0.02008793  0.00001946       0.500
  -0.01971928  0.02052574  0.00000448       0.500
 
 k-points in reciprocal lattice and weights: KPOINTS created by Atomic Simulation Env
   0.25000000  0.25000000  0.00000000       0.500
  -0.25000000  0.25000000 -0.00000000       0.500
 
 position of ions in fractional coordinates (direct lattice) 
   0.22171212  0.99758483  0.50010481
   0.05252247  0.10027326  0.50276474
   0.11023204  0.99957276  0.50227331
   0.27490472  0.09762947  0.49697401
   0.21707884  0.19739698  0.49716096
   0.05151928  0.30089709  0.50195589
   0.10638696  0.19957982  0.50105074
   0.27176090  0.29501807  0.49171135
   0.21863051  0.39820823  0.49371303
   0.05586728  0.50124691  0.50276332
   0.10863322  0.39920918  0.50003214
   0.22887376  0.59358294  0.49758089
   0.05966280  0.69981723  0.50437461
   0.11609528  0.59883823  0.50215572
   0.28860518  0.69417626  0.50095348
   0.22761002  0.79514761  0.50161251
   0.05733181  0.89981521  0.50354403
   0.11515608  0.79837506  0.50308368
   0.27951147  0.89704183  0.50032208
   0.55443012  0.00378785  0.49732752
   0.38586095  0.09947428  0.49432135
   0.44374933  0.99981586  0.49659929
   0.60711052  0.10586643  0.49559597
   0.54969903  0.20663447  0.48945045
   0.43717571  0.20184809  0.48861989
   0.60359894  0.30979649  0.48935209
   0.55956221  0.80141002  0.50194335
   0.39086059  0.89786836  0.49901215
   0.44640444  0.79572213  0.50142325
   0.61117805  0.90342791  0.50062374
   0.88769750  0.00321439  0.50364587
   0.71868569  0.10684889  0.49956833
   0.77599184  0.00537898  0.50190675
   0.94109021  0.10303151  0.50367559
   0.88437585  0.20461155  0.50376891
   0.71575003  0.31054626  0.50095718
   0.77228392  0.20805714  0.50187217
   0.93984552  0.30366428  0.50383322
   0.88528698  0.40572766  0.50548404
   0.77256994  0.41148481  0.50662144
   0.94474309  0.50320170  0.50597246
   0.89041637  0.60465364  0.50745327
   0.72435950  0.70695799  0.50651984
   0.77969463  0.60499480  0.50977890
   0.94762938  0.70246346  0.50609238
   0.89149597  0.80317785  0.50561085
   0.72276697  0.90524527  0.50228126
   0.78019027  0.80498242  0.50507907
   0.94553936  0.90257956  0.50443798
   0.27720329  0.49219433  0.48913970
   0.37776807  0.29473173  0.48410181
   0.55197435  0.40541290  0.47990983
   0.39815335  0.69532599  0.50374185
   0.61707211  0.70621629  0.50404353
   0.72183675  0.51142827  0.51276579
   0.41537441  0.44128684  0.46044438
   0.54896999  0.55338866  0.52160328
 
 position of ions in cartesian coordinates  (Angst):
   2.97789158 12.30869711 10.05423293
   0.68361245  1.23614431 10.11375107
   1.54820215 12.31719154 10.09815577
   3.53577417  1.23549132  9.99665300
   2.80783933  2.45561716  9.99995908
   0.69849190  3.70622621 10.09624392
   1.38827350  2.46660378 10.07850694
   3.52278357  3.66548567  9.88957081
   2.85553644  4.92840392  9.92935111
   0.78196012  6.17368086 10.11123930
   1.44469752  4.92490864 10.05677701
   3.01391068  7.33540889 10.00593003
   0.85808925  8.61913640 10.14241921
   1.56799949  7.38391865 10.09824624
   3.79396427  8.58249069 10.07299258
   3.02554002  9.81697983 10.08579719
   0.85585072 11.08132252 10.12448226
   1.58353588  9.84060501 10.11568642
   3.70537573 11.07901422 10.05906365
   7.10824858  0.12005486 10.00356736
   4.95927798  1.27411900  9.94296790
   5.82628361 12.36798950  9.98307908
   7.79810476  1.38447605  9.96795643
   7.07567339  2.61705601  9.84385971
   5.63168932  2.54202718  9.82749285
   7.78130924  3.89497225  9.84109479
   7.28433113  9.94159575 10.09149227
   5.13376776 11.10514434 10.03239646
   5.83208188  9.85537246 10.08137843
   7.96052073 11.20511246 10.06417172
  11.38291714  0.16061980 10.12975658
   9.22937639  1.41249527 10.04755550
   9.95038939  0.17130385 10.09506614
  12.08158359  1.39727722 10.12959014
  11.36815743  2.63988035 10.13099844
   9.21987580  3.92011771 10.07424744
   9.93085347  2.66628355 10.09313037
  12.09335901  3.86742302 10.13152688
  11.40763997  5.11626731 10.16425958
   9.96261346  5.17100621 10.18741919
  12.18375363  6.32493764 10.17331892
  11.50092506  7.56628866 10.20263453
   9.38507837  8.80217189 10.18368606
  10.08073383  7.55461373 10.24972661
  12.24832750  8.77879433 10.17449401
  11.54223808 10.01082905 10.16434137
   9.39210233 11.24344111 10.09719628
  10.11478133 10.01712305 10.15394111
  12.24920279 11.24247916 10.13998232
   3.61987715  6.09406226  9.83660315
   4.88255052  3.67722391  9.73619104
   7.13241967  5.06498957  9.65069080
   5.19926816  8.61229352 10.12877700
   8.00882733  8.77771287 10.13417085
   9.32563349  6.39424255 10.31055413
   5.38537520  5.48737438  9.25924711
   7.11401607  6.88603884 10.48856621
 


--------------------------------------------------------------------------------------------------------


 k-point  1 :   0.2500 0.2500 0.0000  plane waves:   80661
 k-point  2 :  -0.2500 0.2500-0.0000  plane waves:   80667

 maximum and minimum number of plane-waves per node :      2551     2487

 maximum number of plane-waves:     80667
 maximum index in each direction: 
   IXMAX=   23   IYMAX=   22   IZMAX=   36
   IXMIN=  -23   IYMIN=  -22   IZMIN=  -36


 parallel 3D FFT for wavefunctions:
    minimum data exchange during FFTs selected (reduces bandwidth)
 parallel 3D FFT for charge:
    minimum data exchange during FFTs selected (reduces bandwidth)


 FFT grid for exact exchange (Hartree Fock) 
  NGX = 72; NGY = 70; NGZ =112

 
 Radii for the augmentation spheres in the non-local exchange
 for species   1 augmentation radius   0.874 (default was   0.699)
       energy cutoff for augmentation   2000.0
 for species   2 augmentation radius   0.886 (default was   0.709)
       energy cutoff for augmentation   2000.0
 for species   3 augmentation radius   1.263 (default was   1.010)
       energy cutoff for augmentation   2000.0
 for species   4 augmentation radius   1.357 (default was   1.085)
       energy cutoff for augmentation   2000.0

 real space projection operators:
  total allocation   :       2582.79 KBytes
  max/ min on nodes  :        119.38         40.93

 Maximum index for augmentation-charges in exchange          145
  SETUP_FOCK is finished

 total amount of memory used by VASP MPI-rank0   162292. kBytes
=======================================================================

   base      :      30000. kBytes
   nonl-proj :       5281. kBytes
   fftplans  :      13455. kBytes
   grid      :      34560. kBytes
   one-center:         62. kBytes
   HF        :         23. kBytes
   nonlr-proj:       1982. kBytes
   wavefun   :      76929. kBytes
 
     INWAV:  cpu time    3.5878: real time    3.5940
 Broyden mixing: mesh for mixing (old mesh)
   NGX = 47   NGY = 45   NGZ = 73
  (NGX  =192   NGY  =180   NGZ  =300)
  gives a total of 154395 points

 charge density for first step will be calculated from the start-wavefunctions


--------------------------------------------------------------------------------------------------------


 Maximum index for augmentation-charges          536 (set IRDMAX)


--------------------------------------------------------------------------------------------------------


 initial charge from wavefunction
 First call to EWALD:  gamma=   0.121
 Maximum number of real-space cells 3x 3x 2
 Maximum number of reciprocal cells 2x 2x 4

    FEWALD:  cpu time    0.0027: real time    0.0027


--------------------------------------- Iteration      1(   1)  ---------------------------------------


    POTLOK:  cpu time    1.3217: real time    1.3249
    SETDIJ:  cpu time    2.0980: real time    2.0988
    TRIAL :  cpu time  527.2459: real time  527.4594
    CORREC:  cpu time    0.0019: real time    0.0021
    CHARGE:  cpu time    1.6695: real time    1.6699
    --------------------------------------------
      LOOP:  cpu time  532.3523: real time  532.5736

 eigenvalue-minimisations  :     0
 total energy-change (2. order) :-0.5972446E+03  (-0.4580801E+00)
 number of electron     245.0000012 magnetization      -3.0615933
 augmentation part       13.1673569 magnetization      -2.0903948

 DIPCOR: dipole corrections for dipol
 direction  3 min pos     1,
 dipolmoment           0.000114      0.000174     -0.292505 electrons x Angstroem
 Tr[quadrupol]     -6568.662889

 energy correction for charged system         0.000000 eV
 dipol+quadrupol energy correction           -0.002445 eV
 added-field ion interaction         -0.012936 eV  (added to PSCEN)


 Free energy of the ion-electron system (eV)
  ---------------------------------------------------
  alpha Z        PSCENC =       104.64396444
  Ewald energy   TEWEN  =     39688.00932434
  -Hartree energ DENC   =    -48759.54663357
  -exchange      EXHF   =       568.22482960
  -V(xc)+E(xc)   XCENC  =       653.15108634
  PAW double counting   =     26622.04821412   -26650.40543699
  entropy T*S    EENTRO =        -0.01474584
  eigenvalues    EBANDS =     -3378.51944448
  atomic energy  EATOM  =     10555.16779448
  ---------------------------------------------------
  free energy    TOTEN  =      -597.24462340 eV

  energy without entropy =     -597.22987756  energy(sigma->0) =     -597.23725048
  exchange ACFDT corr.  =        -0.02044896  see jH, gK, PRB 81, 115126


--------------------------------------------------------------------------------------------------------




--------------------------------------- Iteration      1(   2)  ---------------------------------------


    POTLOK:  cpu time    1.3273: real time    1.3275
    SETDIJ:  cpu time    2.1112: real time    2.1113
    TRIAL :  cpu time  530.9032: real time  531.1136
    CORREC:  cpu time    0.0017: real time    0.0020
    CHARGE:  cpu time    1.6670: real time    1.6673
    --------------------------------------------
      LOOP:  cpu time  536.0129: real time  536.2242

 eigenvalue-minimisations  :     0
 total energy-change (2. order) :-0.3584558E+00  (-0.3624956E+00)
 number of electron     245.0000012 magnetization      -3.0582056
 augmentation part       13.1445537 magnetization      -2.1401884

 DIPCOR: dipole corrections for dipol
 direction  3 min pos     1,
 dipolmoment           0.000113      0.000172     -0.289162 electrons x Angstroem
 Tr[quadrupol]     -6568.506472

 energy correction for charged system         0.000000 eV
 dipol+quadrupol energy correction           -0.002390 eV
 added-field ion interaction         -0.012788 eV  (added to PSCEN)


 Free energy of the ion-electron system (eV)
  ---------------------------------------------------
  alpha Z        PSCENC =       104.64416783
  Ewald energy   TEWEN  =     39688.00932434
  -Hartree energ DENC   =    -48741.07755822
  -exchange      EXHF   =       568.06697963
  -V(xc)+E(xc)   XCENC  =       652.69544978
  PAW double counting   =     26838.09382040   -26866.26865774
  entropy T*S    EENTRO =        -0.01163706
  eigenvalues    EBANDS =     -3396.91965388
  atomic energy  EATOM  =     10555.16779448
  ---------------------------------------------------
  free energy    TOTEN  =      -597.60307923 eV

  energy without entropy =     -597.59144217  energy(sigma->0) =     -597.59726070
  exchange ACFDT corr.  =        -0.01360446  see jH, gK, PRB 81, 115126


--------------------------------------------------------------------------------------------------------




--------------------------------------- Iteration      1(   3)  ---------------------------------------


    POTLOK:  cpu time    1.3279: real time    1.3281
    SETDIJ:  cpu time    2.0938: real time    2.0941
    TRIAL :  cpu time  527.6183: real time  527.8192
    CORREC:  cpu time    0.0018: real time    0.0020
    CHARGE:  cpu time    1.6638: real time    1.6640
    --------------------------------------------
      LOOP:  cpu time  532.7089: real time  532.9107

 eigenvalue-minimisations  :     0
 total energy-change (2. order) :-0.2730459E+00  (-0.2054511E+00)
 number of electron     245.0000012 magnetization      -3.0518148
 augmentation part       13.1467232 magnetization      -2.1824028

 DIPCOR: dipole corrections for dipol
 direction  3 min pos     1,
 dipolmoment           0.000117      0.000177     -0.298085 electrons x Angstroem
 Tr[quadrupol]     -6568.348117

 energy correction for charged system         0.000000 eV
 dipol+quadrupol energy correction           -0.002540 eV
 added-field ion interaction         -0.013183 eV  (added to PSCEN)


 Free energy of the ion-electron system (eV)
  ---------------------------------------------------
  alpha Z        PSCENC =       104.64362344
  Ewald energy   TEWEN  =     39688.00932434
  -Hartree energ DENC   =    -48725.15890039
  -exchange      EXHF   =       567.97020362
  -V(xc)+E(xc)   XCENC  =       652.29606070
  PAW double counting   =     27034.38872520   -27062.69215958
  entropy T*S    EENTRO =        -0.00945729
  eigenvalues    EBANDS =     -3412.48915987
  atomic energy  EATOM  =     10555.16779448
  ---------------------------------------------------
  free energy    TOTEN  =      -597.87612513 eV

  energy without entropy =     -597.86666784  energy(sigma->0) =     -597.87139648
  exchange ACFDT corr.  =        -0.00886446  see jH, gK, PRB 81, 115126


--------------------------------------------------------------------------------------------------------




--------------------------------------- Iteration      1(   4)  ---------------------------------------


    POTLOK:  cpu time    1.3304: real time    1.3306
    SETDIJ:  cpu time    2.0908: real time    2.0909
    TRIAL :  cpu time  528.4275: real time  528.6293
    CORREC:  cpu time    0.0018: real time    0.0021
    CHARGE:  cpu time    1.6585: real time    1.6588
    --------------------------------------------
      LOOP:  cpu time  533.5113: real time  533.7140

 eigenvalue-minimisations  :     0
 total energy-change (2. order) :-0.1540160E+00  (-0.1080631E+00)
 number of electron     245.0000012 magnetization      -3.0451220
 augmentation part       13.1487419 magnetization      -2.2137935

 DIPCOR: dipole corrections for dipol
 direction  3 min pos     1,
 dipolmoment           0.000114      0.000172     -0.290427 electrons x Angstroem
 Tr[quadrupol]     -6568.290553

 energy correction for charged system         0.000000 eV
 dipol+quadrupol energy correction           -0.002411 eV
 added-field ion interaction         -0.012844 eV  (added to PSCEN)


 Free energy of the ion-electron system (eV)
  ---------------------------------------------------
  alpha Z        PSCENC =       104.64409097
  Ewald energy   TEWEN  =     39688.00932434
  -Hartree energ DENC   =    -48718.50972291
  -exchange      EXHF   =       568.05389013
  -V(xc)+E(xc)   XCENC  =       652.15663134
  PAW double counting   =     27117.90382587   -27146.25991096
  entropy T*S    EENTRO =        -0.00789893
  eigenvalues    EBANDS =     -3419.18660714
  atomic energy  EATOM  =     10555.16779448
  ---------------------------------------------------
  free energy    TOTEN  =      -598.03014116 eV

  energy without entropy =     -598.02224224  energy(sigma->0) =     -598.02619170
  exchange ACFDT corr.  =        -0.00630414  see jH, gK, PRB 81, 115126


--------------------------------------------------------------------------------------------------------




--------------------------------------- Iteration      1(   5)  ---------------------------------------


    POTLOK:  cpu time    1.3279: real time    1.3282
    SETDIJ:  cpu time    2.0903: real time    2.0905
    TRIAL :  cpu time  528.6898: real time  528.8878
    CORREC:  cpu time    0.0016: real time    0.0018
    CHARGE:  cpu time    1.6590: real time    1.6593
    --------------------------------------------
      LOOP:  cpu time  533.7710: real time  533.9700

 eigenvalue-minimisations  :     0
 total energy-change (2. order) :-0.8246026E-01  (-0.6255812E-01)
 number of electron     245.0000012 magnetization      -3.0379320
 augmentation part       13.1481232 magnetization      -2.2353147

 DIPCOR: dipole corrections for dipol
 direction  3 min pos     1,
 dipolmoment           0.000108      0.000164     -0.276876 electrons x Angstroem
 Tr[quadrupol]     -6568.321211

 energy correction for charged system         0.000000 eV
 dipol+quadrupol energy correction           -0.002191 eV
 added-field ion interaction         -0.012245 eV  (added to PSCEN)


 Free energy of the ion-electron system (eV)
  ---------------------------------------------------
  alpha Z        PSCENC =       104.64490995
  Ewald energy   TEWEN  =     39688.00932434
  -Hartree energ DENC   =    -48718.84378390
  -exchange      EXHF   =       568.26398571
  -V(xc)+E(xc)   XCENC  =       652.20301841
  PAW double counting   =     27166.44885609   -27194.79066679
  entropy T*S    EENTRO =        -0.00660082
  eigenvalues    EBANDS =     -3419.20814079
  atomic energy  EATOM  =     10555.16779448
  ---------------------------------------------------
  free energy    TOTEN  =      -598.11260143 eV

  energy without entropy =     -598.10600061  energy(sigma->0) =     -598.10930102
  exchange ACFDT corr.  =        -0.00480014  see jH, gK, PRB 81, 115126


--------------------------------------------------------------------------------------------------------




--------------------------------------- Iteration      1(   6)  ---------------------------------------


    POTLOK:  cpu time    1.3198: real time    1.3252
    SETDIJ:  cpu time    2.0919: real time    2.0922
    TRIAL :  cpu time  527.3648: real time  527.5575
    CORREC:  cpu time    0.0018: real time    0.0021
    CHARGE:  cpu time    1.6597: real time    1.6601
    --------------------------------------------
      LOOP:  cpu time  532.4408: real time  532.6398

 eigenvalue-minimisations  :     0
 total energy-change (2. order) :-0.5075819E-01  (-0.4034199E-01)
 number of electron     245.0000012 magnetization      -3.0310529
 augmentation part       13.1494357 magnetization      -2.2504748

 DIPCOR: dipole corrections for dipol
 direction  3 min pos     1,
 dipolmoment           0.000106      0.000162     -0.272050 electrons x Angstroem
 Tr[quadrupol]     -6568.383044

 energy correction for charged system         0.000000 eV
 dipol+quadrupol energy correction           -0.002115 eV
 added-field ion interaction         -0.012031 eV  (added to PSCEN)


 Free energy of the ion-electron system (eV)
  ---------------------------------------------------
  alpha Z        PSCENC =       104.64519909
  Ewald energy   TEWEN  =     39688.00932434
  -Hartree energ DENC   =    -48722.01666098
  -exchange      EXHF   =       568.49979460
  -V(xc)+E(xc)   XCENC  =       652.31279082
  PAW double counting   =     27218.16495909   -27246.56454898
  entropy T*S    EENTRO =        -0.00547167
  eigenvalues    EBANDS =     -3416.37541126
  atomic energy  EATOM  =     10555.16779448
  ---------------------------------------------------
  free energy    TOTEN  =      -598.16335961 eV

  energy without entropy =     -598.15788794  energy(sigma->0) =     -598.16062378
  exchange ACFDT corr.  =        -0.00373137  see jH, gK, PRB 81, 115126


--------------------------------------------------------------------------------------------------------




--------------------------------------- Iteration      1(   7)  ---------------------------------------


    POTLOK:  cpu time    1.3250: real time    1.3251
    SETDIJ:  cpu time    2.0915: real time    2.0916
    TRIAL :  cpu time  528.2621: real time  528.4586
    CORREC:  cpu time    0.0018: real time    0.0021
    CHARGE:  cpu time    1.6557: real time    1.6559
    --------------------------------------------
      LOOP:  cpu time  533.3387: real time  533.5359

 eigenvalue-minimisations  :     0
 total energy-change (2. order) :-0.3351268E-01  (-0.2588338E-01)
 number of electron     245.0000012 magnetization      -3.0251837
 augmentation part       13.1532609 magnetization      -2.2623719

 DIPCOR: dipole corrections for dipol
 direction  3 min pos     1,
 dipolmoment           0.000107      0.000162     -0.272905 electrons x Angstroem
 Tr[quadrupol]     -6568.437457

 energy correction for charged system         0.000000 eV
 dipol+quadrupol energy correction           -0.002129 eV
 added-field ion interaction         -0.012069 eV  (added to PSCEN)


 Free energy of the ion-electron system (eV)
  ---------------------------------------------------
  alpha Z        PSCENC =       104.64514797
  Ewald energy   TEWEN  =     39688.00932434
  -Hartree energ DENC   =    -48725.31419945
  -exchange      EXHF   =       568.69795196
  -V(xc)+E(xc)   XCENC  =       652.42050882
  PAW double counting   =     27264.19723663   -27292.69518951
  entropy T*S    EENTRO =        -0.00452610
  eigenvalues    EBANDS =     -3413.31997586
  atomic energy  EATOM  =     10555.16779448
  ---------------------------------------------------
  free energy    TOTEN  =      -598.19687230 eV

  energy without entropy =     -598.19234620  energy(sigma->0) =     -598.19460925
  exchange ACFDT corr.  =        -0.00290934  see jH, gK, PRB 81, 115126


--------------------------------------------------------------------------------------------------------




--------------------------------------- Iteration      1(   8)  ---------------------------------------


    POTLOK:  cpu time    1.3255: real time    1.3257
    SETDIJ:  cpu time    2.0902: real time    2.0904
    TRIAL :  cpu time  528.5792: real time  528.7870
    CORREC:  cpu time    0.0018: real time    0.0021
    CHARGE:  cpu time    1.6638: real time    1.6640
    --------------------------------------------
      LOOP:  cpu time  533.6628: real time  533.8715

 eigenvalue-minimisations  :     0
 total energy-change (2. order) :-0.2216046E-01  (-0.1772978E-01)
 number of electron     245.0000012 magnetization      -3.0204345
 augmentation part       13.1576339 magnetization      -2.2726212

 DIPCOR: dipole corrections for dipol
 direction  3 min pos     1,
 dipolmoment           0.000107      0.000162     -0.272469 electrons x Angstroem
 Tr[quadrupol]     -6568.471844

 energy correction for charged system         0.000000 eV
 dipol+quadrupol energy correction           -0.002122 eV
 added-field ion interaction         -0.012050 eV  (added to PSCEN)


 Free energy of the ion-electron system (eV)
  ---------------------------------------------------
  alpha Z        PSCENC =       104.64517407
  Ewald energy   TEWEN  =     39688.00932434
  -Hartree energ DENC   =    -48727.60134282
  -exchange      EXHF   =       568.83701268
  -V(xc)+E(xc)   XCENC  =       652.50341904
  PAW double counting   =     27292.35528369   -27320.92106502
  entropy T*S    EENTRO =        -0.00375526
  eigenvalues    EBANDS =     -3411.21010712
  atomic energy  EATOM  =     10555.16779448
  ---------------------------------------------------
  free energy    TOTEN  =      -598.21903276 eV

  energy without entropy =     -598.21527750  energy(sigma->0) =     -598.21715513
  exchange ACFDT corr.  =        -0.00228501  see jH, gK, PRB 81, 115126


--------------------------------------------------------------------------------------------------------




--------------------------------------- Iteration      1(   9)  ---------------------------------------


    POTLOK:  cpu time    1.3264: real time    1.3265
    SETDIJ:  cpu time    2.0910: real time    2.0913
    TRIAL :  cpu time  527.7807: real time  527.9882
    CORREC:  cpu time    0.0018: real time    0.0021
    CHARGE:  cpu time    1.6602: real time    1.6605
    --------------------------------------------
      LOOP:  cpu time  532.8623: real time  533.0708

 eigenvalue-minimisations  :     0
 total energy-change (2. order) :-0.1559160E-01  (-0.1271413E-01)
 number of electron     245.0000012 magnetization      -3.0166553
 augmentation part       13.1612884 magnetization      -2.2818326

 DIPCOR: dipole corrections for dipol
 direction  3 min pos     1,
 dipolmoment           0.000105      0.000160     -0.269379 electrons x Angstroem
 Tr[quadrupol]     -6568.488733

 energy correction for charged system         0.000000 eV
 dipol+quadrupol energy correction           -0.002074 eV
 added-field ion interaction         -0.011913 eV  (added to PSCEN)


 Free energy of the ion-electron system (eV)
  ---------------------------------------------------
  alpha Z        PSCENC =       104.64535855
  Ewald energy   TEWEN  =     39688.00932434
  -Hartree energ DENC   =    -48728.78024687
  -exchange      EXHF   =       568.92216309
  -V(xc)+E(xc)   XCENC  =       652.55811781
  PAW double counting   =     27303.03506519   -27331.62977290
  entropy T*S    EENTRO =        -0.00313175
  eigenvalues    EBANDS =     -3410.15867278
  atomic energy  EATOM  =     10555.16779448
  ---------------------------------------------------
  free energy    TOTEN  =      -598.23462436 eV

  energy without entropy =     -598.23149260  energy(sigma->0) =     -598.23305848
  exchange ACFDT corr.  =        -0.00181418  see jH, gK, PRB 81, 115126


--------------------------------------------------------------------------------------------------------




--------------------------------------- Iteration      1(  10)  ---------------------------------------


    POTLOK:  cpu time    1.3277: real time    1.3278
    SETDIJ:  cpu time    2.0930: real time    2.0932
    TRIAL :  cpu time  527.9859: real time  528.1878
    CORREC:  cpu time    0.0019: real time    0.0021
    CHARGE:  cpu time    1.6589: real time    1.6592
    --------------------------------------------
      LOOP:  cpu time  533.0702: real time  533.2728

 eigenvalue-minimisations  :     0
 total energy-change (2. order) :-0.1133874E-01  (-0.9290534E-02)
 number of electron     245.0000012 magnetization      -3.0136811
 augmentation part       13.1636947 magnetization      -2.2902467

 DIPCOR: dipole corrections for dipol
 direction  3 min pos     1,
 dipolmoment           0.000104      0.000158     -0.265667 electrons x Angstroem
 Tr[quadrupol]     -6568.495491

 energy correction for charged system         0.000000 eV
 dipol+quadrupol energy correction           -0.002017 eV
 added-field ion interaction         -0.011749 eV  (added to PSCEN)


 Free energy of the ion-electron system (eV)
  ---------------------------------------------------
  alpha Z        PSCENC =       104.64557947
  Ewald energy   TEWEN  =     39688.00932434
  -Hartree energ DENC   =    -48729.23575835
  -exchange      EXHF   =       568.97121658
  -V(xc)+E(xc)   XCENC  =       652.59135312
  PAW double counting   =     27304.02467003   -27332.63648510
  entropy T*S    EENTRO =        -0.00263098
  eigenvalues    EBANDS =     -3409.78052590
  atomic energy  EATOM  =     10555.16779448
  ---------------------------------------------------
  free energy    TOTEN  =      -598.24596309 eV

  energy without entropy =     -598.24333211  energy(sigma->0) =     -598.24464760
  exchange ACFDT corr.  =        -0.00145636  see jH, gK, PRB 81, 115126


--------------------------------------------------------------------------------------------------------




--------------------------------------- Iteration      1(  11)  ---------------------------------------


    POTLOK:  cpu time    1.3225: real time    1.3227
    SETDIJ:  cpu time    2.0931: real time    2.0933
    TRIAL :  cpu time  527.9463: real time  528.1463
    CORREC:  cpu time    0.0017: real time    0.0019
    CHARGE:  cpu time    1.6572: real time    1.6575
    --------------------------------------------
      LOOP:  cpu time  533.0230: real time  533.2239

 eigenvalue-minimisations  :     0
 total energy-change (2. order) :-0.8395791E-02  (-0.6956538E-02)
 number of electron     245.0000012 magnetization      -3.0113661
 augmentation part       13.1650272 magnetization      -2.2979915

 DIPCOR: dipole corrections for dipol
 direction  3 min pos     1,
 dipolmoment           0.000103      0.000156     -0.262920 electrons x Angstroem
 Tr[quadrupol]     -6568.498464

 energy correction for charged system         0.000000 eV
 dipol+quadrupol energy correction           -0.001976 eV
 added-field ion interaction         -0.011628 eV  (added to PSCEN)


 Free energy of the ion-electron system (eV)
  ---------------------------------------------------
  alpha Z        PSCENC =       104.64574248
  Ewald energy   TEWEN  =     39688.00932434
  -Hartree energ DENC   =    -48729.36347719
  -exchange      EXHF   =       569.00160899
  -V(xc)+E(xc)   XCENC  =       652.61198205
  PAW double counting   =     27302.68402035   -27331.31720112
  entropy T*S    EENTRO =        -0.00223252
  eigenvalues    EBANDS =     -3409.69152227
  atomic energy  EATOM  =     10555.16779448
  ---------------------------------------------------
  free energy    TOTEN  =      -598.25435889 eV

  energy without entropy =     -598.25212636  energy(sigma->0) =     -598.25324262
  exchange ACFDT corr.  =        -0.00118339  see jH, gK, PRB 81, 115126


--------------------------------------------------------------------------------------------------------




--------------------------------------- Iteration      1(  12)  ---------------------------------------


    POTLOK:  cpu time    1.3232: real time    1.3233
    SETDIJ:  cpu time    2.0833: real time    2.0836
    TRIAL :  cpu time  527.8694: real time  528.0913
    CORREC:  cpu time    0.0018: real time    0.0020
    CHARGE:  cpu time    1.6599: real time    1.6603
    --------------------------------------------
      LOOP:  cpu time  532.9400: real time  533.1629

 eigenvalue-minimisations  :     0
 total energy-change (2. order) :-0.6359268E-02  (-0.5329347E-02)
 number of electron     245.0000012 magnetization      -3.0095695
 augmentation part       13.1658767 magnetization      -2.3051071

 DIPCOR: dipole corrections for dipol
 direction  3 min pos     1,
 dipolmoment           0.000102      0.000155     -0.261126 electrons x Angstroem
 Tr[quadrupol]     -6568.500983

 energy correction for charged system         0.000000 eV
 dipol+quadrupol energy correction           -0.001949 eV
 added-field ion interaction         -0.011548 eV  (added to PSCEN)


 Free energy of the ion-electron system (eV)
  ---------------------------------------------------
  alpha Z        PSCENC =       104.64584869
  Ewald energy   TEWEN  =     39688.00932434
  -Hartree energ DENC   =    -48729.39764656
  -exchange      EXHF   =       569.02442580
  -V(xc)+E(xc)   XCENC  =       652.62691962
  PAW double counting   =     27302.27551926   -27330.93159112
  entropy T*S    EENTRO =        -0.00191647
  eigenvalues    EBANDS =     -3409.67908015
  atomic energy  EATOM  =     10555.16779448
  ---------------------------------------------------
  free energy    TOTEN  =      -598.26071815 eV

  energy without entropy =     -598.25880168  energy(sigma->0) =     -598.25975992
  exchange ACFDT corr.  =        -0.00097552  see jH, gK, PRB 81, 115126


--------------------------------------------------------------------------------------------------------




--------------------------------------- Iteration      1(  13)  ---------------------------------------


    POTLOK:  cpu time    1.3235: real time    1.3237
    SETDIJ:  cpu time    2.0862: real time    2.0863
    TRIAL :  cpu time  528.1045: real time  528.3265
    CORREC:  cpu time    0.0015: real time    0.0018
    CHARGE:  cpu time    1.6590: real time    1.6592
    --------------------------------------------
      LOOP:  cpu time  533.1769: real time  533.3996

 eigenvalue-minimisations  :     0
 total energy-change (2. order) :-0.4925913E-02  (-0.4187519E-02)
 number of electron     245.0000012 magnetization      -3.0081638
 augmentation part       13.1666532 magnetization      -2.3115510

 DIPCOR: dipole corrections for dipol
 direction  3 min pos     1,
 dipolmoment           0.000102      0.000154     -0.259626 electrons x Angstroem
 Tr[quadrupol]     -6568.503976

 energy correction for charged system         0.000000 eV
 dipol+quadrupol energy correction           -0.001927 eV
 added-field ion interaction         -0.011482 eV  (added to PSCEN)


 Free energy of the ion-electron system (eV)
  ---------------------------------------------------
  alpha Z        PSCENC =       104.64593734
  Ewald energy   TEWEN  =     39688.00932434
  -Hartree energ DENC   =    -48729.43757448
  -exchange      EXHF   =       569.04447305
  -V(xc)+E(xc)   XCENC  =       652.64006291
  PAW double counting   =     27302.90285474   -27331.57709106
  entropy T*S    EENTRO =        -0.00166413
  eigenvalues    EBANDS =     -3409.65950891
  atomic energy  EATOM  =     10555.16779448
  ---------------------------------------------------
  free energy    TOTEN  =      -598.26564407 eV

  energy without entropy =     -598.26397994  energy(sigma->0) =     -598.26481200
  exchange ACFDT corr.  =        -0.00081679  see jH, gK, PRB 81, 115126


--------------------------------------------------------------------------------------------------------




--------------------------------------- Iteration      1(  14)  ---------------------------------------


    POTLOK:  cpu time    1.3212: real time    1.3215
    SETDIJ:  cpu time    2.0904: real time    2.0906
    TRIAL :  cpu time  527.5360: real time  527.7372
    CORREC:  cpu time    0.0018: real time    0.0020
    CHARGE:  cpu time    1.6614: real time    1.6618
    --------------------------------------------
      LOOP:  cpu time  532.6129: real time  532.8152

 eigenvalue-minimisations  :     0
 total energy-change (2. order) :-0.3907809E-02  (-0.3362698E-02)
 number of electron     245.0000012 magnetization      -3.0070491
 augmentation part       13.1674106 magnetization      -2.3173094

 DIPCOR: dipole corrections for dipol
 direction  3 min pos     1,
 dipolmoment           0.000101      0.000153     -0.258067 electrons x Angstroem
 Tr[quadrupol]     -6568.507281

 energy correction for charged system         0.000000 eV
 dipol+quadrupol energy correction           -0.001903 eV
 added-field ion interaction         -0.011413 eV  (added to PSCEN)


 Free energy of the ion-electron system (eV)
  ---------------------------------------------------
  alpha Z        PSCENC =       104.64602939
  Ewald energy   TEWEN  =     39688.00932434
  -Hartree energ DENC   =    -48729.50490143
  -exchange      EXHF   =       569.06280632
  -V(xc)+E(xc)   XCENC  =       652.65251256
  PAW double counting   =     27303.85115454   -27332.53869293
  entropy T*S    EENTRO =        -0.00146037
  eigenvalues    EBANDS =     -3409.61391500
  atomic energy  EATOM  =     10555.16779448
  ---------------------------------------------------
  free energy    TOTEN  =      -598.26955188 eV

  energy without entropy =     -598.26809150  energy(sigma->0) =     -598.26882169
  exchange ACFDT corr.  =        -0.00069412  see jH, gK, PRB 81, 115126


--------------------------------------------------------------------------------------------------------




--------------------------------------- Iteration      1(  15)  ---------------------------------------


    POTLOK:  cpu time    1.3260: real time    1.3261
    SETDIJ:  cpu time    2.0887: real time    2.0940
    TRIAL :  cpu time  529.7838: real time  529.9810
    CORREC:  cpu time    0.0017: real time    0.0020
    CHARGE:  cpu time    1.6637: real time    1.6639
    --------------------------------------------
      LOOP:  cpu time  534.8663: real time  535.0694

 eigenvalue-minimisations  :     0
 total energy-change (2. order) :-0.3163160E-02  (-0.2750660E-02)
 number of electron     245.0000012 magnetization      -3.0061558
 augmentation part       13.1680168 magnetization      -2.3224615

 DIPCOR: dipole corrections for dipol
 direction  3 min pos     1,
 dipolmoment           0.000100      0.000152     -0.256497 electrons x Angstroem
 Tr[quadrupol]     -6568.510543

 energy correction for charged system         0.000000 eV
 dipol+quadrupol energy correction           -0.001880 eV
 added-field ion interaction         -0.011344 eV  (added to PSCEN)


 Free energy of the ion-electron system (eV)
  ---------------------------------------------------
  alpha Z        PSCENC =       104.64612188
  Ewald energy   TEWEN  =     39688.00932434
  -Hartree energ DENC   =    -48729.58614095
  -exchange      EXHF   =       569.07935677
  -V(xc)+E(xc)   XCENC  =       652.66393196
  PAW double counting   =     27305.02962536   -27333.72897857
  entropy T*S    EENTRO =        -0.00129432
  eigenvalues    EBANDS =     -3409.55228992
  atomic energy  EATOM  =     10555.16779448
  ---------------------------------------------------
  free energy    TOTEN  =      -598.27271504 eV

  energy without entropy =     -598.27142071  energy(sigma->0) =     -598.27206787
  exchange ACFDT corr.  =        -0.00059782  see jH, gK, PRB 81, 115126


--------------------------------------------------------------------------------------------------------




--------------------------------------- Iteration      1(  16)  ---------------------------------------


    POTLOK:  cpu time    1.3202: real time    1.3204
    SETDIJ:  cpu time    2.0958: real time    2.0960
    TRIAL :  cpu time  529.0551: real time  529.2560
    CORREC:  cpu time    0.0017: real time    0.0020
    CHARGE:  cpu time    1.6609: real time    1.6613
    --------------------------------------------
      LOOP:  cpu time  534.1364: real time  534.3384

 eigenvalue-minimisations  :     0
 total energy-change (2. order) :-0.2605776E-02  (-0.2288990E-02)
 number of electron     245.0000012 magnetization      -3.0054345
 augmentation part       13.1683794 magnetization      -2.3271405

 DIPCOR: dipole corrections for dipol
 direction  3 min pos     1,
 dipolmoment           0.000100      0.000151     -0.255050 electrons x Angstroem
 Tr[quadrupol]     -6568.513591

 energy correction for charged system         0.000000 eV
 dipol+quadrupol energy correction           -0.001859 eV
 added-field ion interaction         -0.011280 eV  (added to PSCEN)


 Free energy of the ion-electron system (eV)
  ---------------------------------------------------
  alpha Z        PSCENC =       104.64620706
  Ewald energy   TEWEN  =     39688.00932434
  -Hartree energ DENC   =    -48729.66399491
  -exchange      EXHF   =       569.09418907
  -V(xc)+E(xc)   XCENC  =       652.67399544
  PAW double counting   =     27306.55360262   -27335.26464935
  entropy T*S    EENTRO =        -0.00115817
  eigenvalues    EBANDS =     -3409.49049523
  atomic energy  EATOM  =     10555.16779448
  ---------------------------------------------------
  free energy    TOTEN  =      -598.27532081 eV

  energy without entropy =     -598.27416264  energy(sigma->0) =     -598.27474173
  exchange ACFDT corr.  =        -0.00052122  see jH, gK, PRB 81, 115126


--------------------------------------------------------------------------------------------------------




--------------------------------------- Iteration      1(  17)  ---------------------------------------


    POTLOK:  cpu time    1.3228: real time    1.3229
    SETDIJ:  cpu time    2.0826: real time    2.0830
    TRIAL :  cpu time  527.9894: real time  528.1958
    CORREC:  cpu time    0.0017: real time    0.0020
    CHARGE:  cpu time    1.6587: real time    1.6589
    --------------------------------------------
      LOOP:  cpu time  533.0575: real time  533.2649

 eigenvalue-minimisations  :     0
 total energy-change (2. order) :-0.2181619E-02  (-0.1936448E-02)
 number of electron     245.0000012 magnetization      -3.0048480
 augmentation part       13.1685609 magnetization      -2.3314375

 DIPCOR: dipole corrections for dipol
 direction  3 min pos     1,
 dipolmoment           0.000099      0.000151     -0.253744 electrons x Angstroem
 Tr[quadrupol]     -6568.516355

 energy correction for charged system         0.000000 eV
 dipol+quadrupol energy correction           -0.001840 eV
 added-field ion interaction         -0.011222 eV  (added to PSCEN)


 Free energy of the ion-electron system (eV)
  ---------------------------------------------------
  alpha Z        PSCENC =       104.64628379
  Ewald energy   TEWEN  =     39688.00932434
  -Hartree energ DENC   =    -48729.72746696
  -exchange      EXHF   =       569.10751694
  -V(xc)+E(xc)   XCENC  =       652.68279548
  PAW double counting   =     27308.24570519   -27336.96723273
  entropy T*S    EENTRO =        -0.00104588
  eigenvalues    EBANDS =     -3409.44106479
  atomic energy  EATOM  =     10555.16779448
  ---------------------------------------------------
  free energy    TOTEN  =      -598.27750243 eV

  energy without entropy =     -598.27645656  energy(sigma->0) =     -598.27697949
  exchange ACFDT corr.  =        -0.00045971  see jH, gK, PRB 81, 115126


--------------------------------------------------------------------------------------------------------




--------------------------------------- Iteration      1(  18)  ---------------------------------------


    POTLOK:  cpu time    1.3189: real time    1.3192
    SETDIJ:  cpu time    2.0854: real time    2.0856
    TRIAL :  cpu time  529.1105: real time  529.3117
    CORREC:  cpu time    0.0017: real time    0.0020
    CHARGE:  cpu time    1.6644: real time    1.6646
    --------------------------------------------
      LOOP:  cpu time  534.1834: real time  534.3855

 eigenvalue-minimisations  :     0
 total energy-change (2. order) :-0.1855463E-02  (-0.1664907E-02)
 number of electron     245.0000012 magnetization      -3.0043670
 augmentation part       13.1686658 magnetization      -2.3353872

 DIPCOR: dipole corrections for dipol
 direction  3 min pos     1,
 dipolmoment           0.000099      0.000150     -0.252542 electrons x Angstroem
 Tr[quadrupol]     -6568.518822

 energy correction for charged system         0.000000 eV
 dipol+quadrupol energy correction           -0.001823 eV
 added-field ion interaction         -0.011169 eV  (added to PSCEN)


 Free energy of the ion-electron system (eV)
  ---------------------------------------------------
  alpha Z        PSCENC =       104.64635437
  Ewald energy   TEWEN  =     39688.00932434
  -Hartree energ DENC   =    -48729.77661589
  -exchange      EXHF   =       569.11957905
  -V(xc)+E(xc)   XCENC  =       652.69068435
  PAW double counting   =     27309.79090262   -27338.52099061
  entropy T*S    EENTRO =        -0.00095256
  eigenvalues    EBANDS =     -3409.40534472
  atomic energy  EATOM  =     10555.16779448
  ---------------------------------------------------
  free energy    TOTEN  =      -598.27935789 eV

  energy without entropy =     -598.27840533  energy(sigma->0) =     -598.27888161
[...]
  E(xc)    -720.82674  -720.35302  -734.76811    -0.16741    -0.21830    -0.27959
  Local  -98798.45105-98899.78339100942.72153    61.34321   137.08727    93.22306
  n-local  -186.19778  -182.94885  -188.00794     0.85977     1.78737     0.43086
  augment    46.29852    47.77484    47.48350     0.89500     1.97541     1.08120
  Kinetic  3688.00172  3675.77263  4179.48197    12.65421    10.11729     6.76311
  Fock     -346.10449  -349.09570  -320.18215    -1.26147    -1.57886    -0.90690
  -------------------------------------------------------------------------------------
  Total     -43.32943   -43.35597    -0.71265     1.41248     0.30459     0.99707
  in kB     -21.85208   -21.86546    -0.35941     0.71235     0.15361     0.50285
  external pressure =      -14.69 kB  Pullay stress =        0.00 kB


 VOLUME and BASIS-vectors are now :
 -----------------------------------------------------------------------------
  energy-cutoff  :      500.00
  volume of cell :     3176.88
      direct lattice vectors                 reciprocal lattice vectors
    12.826930791  0.143131880 -0.002777723     0.077970750 -0.000875610  0.000029967
     0.138273409 12.312673651 -0.006169897    -0.000906381  0.081227331  0.000047872
    -0.007866049 -0.011944411 20.117790516     0.000010488  0.000024791  0.049707267

  length of vectors
    12.827729650 12.313451589 20.117795600     0.077975672  0.081232402  0.049707274


 FORCES acting on ions:
    Electron-Ion                     Ewald-Force                    Non-Local-Force
 -----------------------------------------------------------------------------------------------
   0.381E+01 0.746E+01 -.407E+01   -.415E+01 -.757E+01 0.411E+01   0.364E+00 0.843E-01 -.463E-01
   0.477E+01 0.647E+01 -.123E+02   -.493E+01 -.667E+01 0.123E+02   0.112E+00 0.131E+00 -.392E-01
   0.115E+01 0.892E+00 -.848E+01   -.132E+01 -.907E+00 0.843E+01   0.117E+00 0.184E-01 0.384E-01
   0.501E+01 0.150E+02 0.308E+01   -.516E+01 -.153E+02 -.320E+01   0.133E+00 0.393E+00 0.109E+00
   0.162E+02 0.151E+02 -.370E+01   -.169E+02 -.153E+02 0.380E+01   0.544E+00 0.259E+00 -.120E+00
   0.941E+01 0.125E+01 -.111E+02   -.966E+01 -.160E+01 0.110E+02   0.262E+00 0.275E+00 0.344E-01
   0.830E+01 0.600E+01 -.107E+02   -.878E+01 -.601E+01 0.107E+02   0.485E+00 0.658E-01 -.155E-01
   0.440E+02 0.126E+02 0.941E+01   -.478E+02 -.128E+02 -.879E+01   0.355E+01 0.274E+00 -.589E+00
   0.316E+02 0.111E+02 0.605E+01   -.337E+02 -.140E+02 -.557E+01   0.195E+01 0.257E+01 -.459E+00
   0.559E+01 -.988E+01 -.113E+02   -.590E+01 0.101E+02 0.112E+02   0.425E-01 -.261E+00 0.138E+00
   0.152E+02 0.522E+01 -.860E+01   -.157E+02 -.549E+01 0.865E+01   0.629E+00 0.232E+00 -.926E-01
   0.233E+01 -.406E+02 -.114E+01   -.396E+01 0.441E+02 0.148E+01   0.143E+01 -.316E+01 -.285E+00
   -.203E+00 -.329E+01 -.153E+02   0.191E+00 0.352E+01 0.153E+02   0.669E-01 -.191E+00 -.433E-01
   -.224E+00 -.827E+01 -.125E+02   0.252E+00 0.872E+01 0.124E+02   0.128E+00 -.345E+00 -.178E-01
   0.195E+02 0.849E+01 -.674E+01   -.223E+02 -.854E+01 0.667E+01   0.251E+01 -.447E-01 0.801E-01
   0.642E+01 0.342E+01 -.587E+01   -.675E+01 -.375E+01 0.591E+01   0.305E+00 0.280E+00 -.237E-01
   -.837E-01 0.477E+01 -.101E+02   0.796E-01 -.472E+01 0.101E+02   -.428E-01 0.404E-02 -.184E-01
   -.409E+01 -.474E+01 -.781E+01   0.387E+01 0.464E+01 0.772E+01   0.214E+00 0.235E-01 0.963E-01
   0.629E+01 0.647E+00 -.216E+01   -.650E+01 -.500E+00 0.219E+01   0.206E+00 -.783E-01 -.239E-01
   -.469E+01 -.550E+01 0.822E+01   0.466E+01 0.577E+01 -.829E+01   0.203E-01 -.267E+00 0.672E-01
   -.388E+01 0.140E+02 0.965E+01   0.403E+01 -.145E+02 -.952E+01   -.135E+00 0.475E+00 -.146E+00
   0.191E+01 0.791E+01 0.925E+01   -.145E+01 -.794E+01 -.929E+01   -.397E+00 0.453E-01 0.412E-01
   -.443E+01 0.501E+01 0.114E+02   0.456E+01 -.498E+01 -.113E+02   -.499E-01 -.847E-01 -.114E+00
   -.132E+02 0.120E+02 0.382E+02   0.139E+02 -.116E+02 -.384E+02   -.602E+00 -.374E+00 0.342E+00
   -.301E+02 0.422E+02 0.300E+02   0.325E+02 -.452E+02 -.297E+02   -.251E+01 0.307E+01 -.268E+00
   -.323E+02 0.480E+02 0.371E+02   0.338E+02 -.505E+02 -.370E+02   -.145E+01 0.237E+01 -.128E+00
   0.262E+02 -.353E+02 0.240E+01   -.283E+02 0.385E+02 -.269E+01   0.191E+01 -.297E+01 0.273E+00
   0.512E+00 -.621E+01 0.557E+01   -.303E+00 0.650E+01 -.563E+01   -.197E+00 -.295E+00 0.888E-01
   -.305E+01 -.184E+02 -.940E+00   0.400E+01 0.208E+02 0.721E+00   -.791E+00 -.228E+01 0.216E+00
   0.983E+00 -.113E+02 0.701E+00   -.112E+01 0.119E+02 -.679E+00   0.104E+00 -.615E+00 -.249E-01
   0.282E+00 0.572E+00 -.104E+02   -.287E+00 -.582E+00 0.104E+02   0.205E-01 0.264E-01 -.119E-01
   -.448E+01 0.212E+00 0.105E+01   0.455E+01 -.162E+00 -.115E+01   -.111E+00 -.257E-01 0.942E-01
   -.255E+01 -.651E+01 -.374E+01   0.265E+01 0.674E+01 0.374E+01   -.113E+00 -.318E+00 0.749E-02
   0.188E+01 -.121E+01 -.129E+02   -.200E+01 0.112E+01 0.128E+02   0.160E+00 0.286E-01 0.207E-01
   0.265E+01 0.515E+01 -.153E+02   -.277E+01 -.525E+01 0.153E+02   0.650E-01 0.114E+00 -.480E-01
   -.970E+01 0.103E+02 -.140E+02   0.913E+01 -.105E+02 0.142E+02   0.480E+00 0.770E-01 -.286E+00
   -.205E+01 0.370E+01 -.111E+02   0.195E+01 -.360E+01 0.111E+02   0.148E+00 -.146E+00 -.564E-02
   0.929E+00 0.467E+01 -.121E+02   -.107E+01 -.491E+01 0.120E+02   0.110E+00 0.251E+00 0.984E-01
   -.443E+01 0.796E+01 -.150E+02   0.450E+01 -.830E+01 0.149E+02   -.133E+00 0.259E+00 0.888E-01
   -.151E+02 0.394E+02 -.229E+02   0.164E+02 -.424E+02 0.222E+02   -.123E+01 0.303E+01 0.611E+00
   -.870E+01 0.557E+01 -.195E+02   0.901E+01 -.561E+01 0.196E+02   -.765E-01 0.817E-01 -.159E+00
   -.140E+02 -.733E+01 -.204E+02   0.143E+02 0.779E+01 0.203E+02   -.367E+00 -.392E+00 0.926E-01
   -.366E+02 -.129E+02 -.142E+02   0.404E+02 0.129E+02 0.140E+02   -.350E+01 -.772E-01 0.187E+00
   -.293E+02 -.205E+02 -.321E+02   0.312E+02 0.230E+02 0.320E+02   -.178E+01 -.225E+01 0.123E+00
   -.113E+02 -.350E+01 -.163E+02   0.114E+02 0.374E+01 0.163E+02   -.224E+00 -.207E+00 0.434E-01
   -.591E+01 -.585E+01 -.146E+02   0.635E+01 0.579E+01 0.146E+02   -.438E+00 0.224E-03 -.437E-01
   -.387E+01 -.118E+02 -.174E+01   0.408E+01 0.124E+02 0.163E+01   -.196E+00 -.395E+00 0.116E+00
   -.143E+02 -.131E+02 -.113E+02   0.149E+02 0.133E+02 0.113E+02   -.556E+00 -.333E+00 0.977E-02
   -.462E+01 -.479E+01 -.112E+02   0.466E+01 0.493E+01 0.112E+02   0.825E-02 -.122E+00 0.371E-01
   -.300E+02 -.452E+02 0.400E+02   0.488E+02 0.451E+02 -.426E+02   -.174E+02 0.944E-01 0.243E+01
   -.239E+02 -.769E+00 0.608E+02   0.341E+02 0.184E+02 -.639E+02   -.954E+01 -.170E+02 0.297E+01
   -.421E+02 0.885E+01 0.159E+03   0.399E+02 0.680E+01 -.161E+03   0.252E+01 -.143E+02 0.296E+01
   -.184E+02 0.705E+02 -.288E+02   0.311E+02 -.915E+02 0.303E+02   -.118E+02 0.197E+02 -.142E+01
   0.246E+02 0.118E+02 0.122E+02   -.348E+02 -.306E+02 -.135E+02   0.944E+01 0.174E+02 0.131E+01
   0.294E+02 0.177E+02 -.799E+02   -.524E+02 -.170E+02 0.821E+02   0.215E+02 -.680E+00 -.212E+01
   0.313E+02 -.971E+02 0.467E+03   -.312E+02 0.926E+02 -.461E+03   -.140E+01 0.424E+01 -.700E+01
   0.868E+02 -.489E+02 -.418E+03   -.818E+02 0.492E+02 0.410E+03   -.388E+01 -.220E+00 0.656E+01
 -----------------------------------------------------------------------------------------------
   0.995E+01 -.930E+01 -.673E+01   -.284E-12 0.497E-13 -.171E-12   -.948E+01 0.848E+01 0.573E+01
 
 
 POSITION                                       TOTAL-FORCE (eV/Angst)
 -----------------------------------------------------------------------------------
      2.97789     12.30870     10.05423         0.039886     -0.014409     -0.009002
      0.68361      1.23614     10.11375        -0.035910     -0.057372     -0.010703
      1.54820     12.31719     10.09816        -0.052401     -0.001539     -0.007007
      3.53577      1.23549      9.99665        -0.005262      0.033125     -0.002857
      2.80784      2.45562      9.99996        -0.060458      0.024698     -0.020481
      0.69849      3.70623     10.09624         0.021971     -0.056916     -0.002987
      1.38827      2.46660     10.07851         0.032910      0.050685     -0.012487
      3.52278      3.66549      9.88957        -0.001282      0.058672     -0.002048
      2.85554      4.92840      9.92935        -0.102042     -0.243884     -0.009640
      0.78196      6.17368     10.11124        -0.261064     -0.037393      0.004399
      1.44470      4.92491     10.05678         0.202724     -0.009690     -0.046340
      3.01391      7.33541     10.00593        -0.130318      0.227442      0.030834
      0.85809      8.61914     10.14242         0.065027      0.030391     -0.011607
      1.56800      7.38392     10.09825         0.155242      0.094840     -0.051113
      3.79396      8.58249     10.07299        -0.153198     -0.091690      0.012604
      3.02554      9.81698     10.08580        -0.011390     -0.030882      0.007027
      0.85585     11.08132     10.12448        -0.047612      0.061187     -0.006637
      1.58354      9.84061     10.11569         0.002805     -0.081848      0.003992
      3.70538     11.07901     10.05906         0.011547      0.064505     -0.003952
      7.10825      0.12005     10.00357        -0.018179     -0.021795     -0.004601
      4.95928      1.27412      9.94297        -0.000578     -0.019119     -0.021988
      5.82628     12.36799      9.98308         0.040415      0.020354      0.004116
      7.79810      1.38448      9.96796         0.084791     -0.049146     -0.005180
      7.07567      2.61706      9.84386         0.018899      0.047019      0.072279
      5.63169      2.54203      9.82749        -0.264371      0.212777      0.012898
      7.78131      3.89497      9.84109         0.007694      0.018268     -0.021805
      7.28433      9.94160     10.09149        -0.057874      0.057405      0.000577
      5.13377     11.10514     10.03240        -0.004854     -0.026360      0.030070
      5.83208      9.85537     10.08138         0.111737     -0.022053      0.007711
      7.96052     11.20511     10.06417        -0.027595     -0.046554     -0.004601
     11.38292      0.16062     10.12976         0.018043      0.023264     -0.005725
      9.22938      1.41250     10.04756        -0.058836      0.022045     -0.000571
      9.95039      0.17130     10.09507        -0.024186     -0.105870      0.005716
     12.08158      1.39728     10.12959         0.049408     -0.062412     -0.011149
     11.36816      2.63988     10.13100        -0.053796      0.024774     -0.014336
      9.21988      3.92012     10.07425        -0.075927     -0.055654     -0.097959
      9.93085      2.66628     10.09313         0.061386     -0.060176     -0.012101
     12.09336      3.86742     10.13153        -0.029792      0.018399     -0.006600
     11.40764      5.11627     10.16426        -0.066842     -0.068582      0.005778
      9.96261      5.17101     10.18742        -0.042576      0.258024     -0.001044
     12.18375      6.32494     10.17332         0.224836      0.051384     -0.024096
     11.50093      7.56629     10.20263        -0.094254      0.042838      0.005557
      9.38508      8.80217     10.18369         0.103700     -0.036437     -0.009379
     10.08073      7.55461     10.24973         0.028016      0.112497     -0.018490
     12.24833      8.77879     10.17449        -0.070249      0.021294     -0.009145
     11.54224     10.01083     10.16434        -0.016874     -0.060364     -0.010013
      9.39210     11.24344     10.09720         0.010774      0.096110      0.009848
     10.11478     10.01712     10.15394        -0.005313     -0.143072     -0.005235
     12.24920     11.24248     10.13998         0.043931      0.002069     -0.005309
      3.61988      6.09406      9.83660        -0.103698     -0.008597      0.056208
      4.88255      3.67722      9.73619        -0.268823     -0.832808      0.199712
      7.13242      5.06499      9.65069         0.482902      0.147934      0.544124
      5.19927      8.61229     10.12878        -0.111397      0.368798     -0.084490
      8.00883      8.77771     10.13417         0.072510      0.055893      0.147942
      9.32563      6.39424     10.31055         0.377933     -0.041353     -0.050716
      5.38538      5.48737      9.25925        -0.777042     -0.069781     -0.241623
      7.11402      6.88604     10.48857         0.764904      0.109067     -0.298377
 -----------------------------------------------------------------------------------
    total drift:                                0.015128     -0.020532      0.034780


--------------------------------------------------------------------------------------------------------



  FREE ENERGIE OF THE ION-ELECTRON SYSTEM (eV)
  ---------------------------------------------------
  free  energy   TOTEN  =      -598.30399920 eV

  energy  without entropy=     -598.30370380  energy(sigma->0) =     -598.30385150
 


--------------------------------------------------------------------------------------------------------


    POTLOK:  cpu time    3.4081: real time    3.4085


--------------------------------------------------------------------------------------------------------


 stress matrix after NEB project (eV)
    -43.32943      1.41213      0.99707
      1.41248    -43.35597      0.30590
      0.99697      0.30459     -0.71265
  FORCES: max atom, RMS     0.897619    0.259962
  FORCE total and by dimension    1.962669    0.832808
  Stress total and by dimension   61.350238   43.355972
 writing wavefunctions
     LOOP+:  cpu time47640.9774: real time47655.9865
    4ORBIT:  cpu time    0.0000: real time    0.0000
 


 total charge     
 
# of ion       s       p       d       tot
------------------------------------------
    1        0.864   1.779   0.000   2.643
    2        0.867   1.775   0.000   2.642
    3        0.866   1.777   0.000   2.643
    4        0.870   1.774   0.000   2.644
    5        0.872   1.796   0.000   2.668
    6        0.864   1.778   0.000   2.642
    7        0.870   1.787   0.000   2.657
    8        0.866   1.776   0.000   2.642
    9        0.859   1.752   0.000   2.610
   10        0.865   1.775   0.000   2.639
   11        0.871   1.784   0.000   2.655
   12        0.843   1.699   0.000   2.543
   13        0.865   1.772   0.000   2.637
   14        0.860   1.750   0.000   2.610
   15        0.841   1.680   0.000   2.522
   16        0.859   1.744   0.000   2.603
   17        0.865   1.766   0.000   2.631
   18        0.862   1.759   0.000   2.621
   19        0.868   1.755   0.000   2.623
   20        0.863   1.778   0.000   2.641
   21        0.866   1.777   0.000   2.643
   22        0.864   1.772   0.000   2.636
   23        0.863   1.744   0.000   2.607
   24        0.855   1.756   0.000   2.611
   25        0.860   1.722   0.000   2.582
   26        0.856   1.693   0.000   2.549
   27        0.858   1.732   0.000   2.589
   28        0.863   1.763   0.000   2.626
   29        0.853   1.714   0.000   2.567
   30        0.866   1.770   0.000   2.636
   31        0.865   1.774   0.000   2.639
   32        0.861   1.759   0.000   2.620
   33        0.864   1.766   0.000   2.630
   34        0.867   1.769   0.000   2.635
   35        0.863   1.765   0.000   2.628
   36        0.852   1.745   0.000   2.596
   37        0.861   1.740   0.000   2.601
   38        0.866   1.768   0.000   2.634
   39        0.862   1.764   0.000   2.625
   40        0.852   1.693   0.000   2.546
   41        0.868   1.768   0.000   2.636
   42        0.869   1.790   0.000   2.659
   43        0.863   1.758   0.000   2.621
   44        0.861   1.752   0.000   2.613
   45        0.864   1.775   0.000   2.639
   46        0.868   1.783   0.000   2.651
   47        0.867   1.771   0.000   2.638
   48        0.869   1.783   0.000   2.652
   49        0.866   1.768   0.000   2.634
   50        1.222   2.662   0.000   3.884
   51        1.239   2.704   0.000   3.943
   52        1.247   2.619   0.000   3.867
   53        1.225   2.597   0.000   3.822
   54        1.235   2.703   0.000   3.938
   55        1.232   2.649   0.000   3.881
   56        0.466   0.565   6.159   7.189
   57        2.190   6.187   1.074   9.451
--------------------------------------------------
tot         52.324 108.877   7.233 168.434
 


 magnetization (x)
 
# of ion       s       p       d       tot
------------------------------------------
    1        0.000   0.002   0.000   0.002
    2        0.001   0.010   0.000   0.011
    3       -0.001  -0.008   0.000  -0.009
    4        0.000   0.004   0.000   0.004
    5       -0.000   0.002   0.000   0.002
    6        0.000   0.004   0.000   0.005
    7       -0.001  -0.006   0.000  -0.007
    8       -0.001  -0.006   0.000  -0.007
    9       -0.001   0.013   0.000   0.013
   10        0.002   0.025   0.000   0.027
   11       -0.001  -0.007   0.000  -0.008
   12        0.002   0.036   0.000   0.038
   13        0.001   0.014   0.000   0.015
   14       -0.002  -0.011   0.000  -0.013
   15       -0.002  -0.015   0.000  -0.017
   16        0.001   0.016   0.000   0.017
   17        0.001   0.009   0.000   0.010
   18       -0.001  -0.014   0.000  -0.015
   19        0.000   0.006   0.000   0.006
   20       -0.000  -0.005   0.000  -0.005
   21       -0.001   0.002   0.000   0.001
   22        0.000   0.006   0.000   0.006
   23       -0.000   0.000   0.000   0.000
   24       -0.001  -0.010   0.000  -0.011
   25        0.000   0.006   0.000   0.006
   26       -0.001   0.003   0.000   0.002
   27        0.001   0.029   0.000   0.030
   28       -0.000   0.001   0.000   0.000
   29        0.000   0.019   0.000   0.019
   30       -0.001  -0.007   0.000  -0.008
   31        0.000   0.006   0.000   0.007
   32        0.001   0.011   0.000   0.011
   33       -0.001  -0.003   0.000  -0.003
   34       -0.001  -0.007   0.000  -0.008
   35        0.001   0.014   0.000   0.015
   36       -0.001  -0.008   0.000  -0.008
   37       -0.000  -0.004   0.000  -0.004
   38       -0.001  -0.007   0.000  -0.008
   39        0.001   0.020   0.000   0.021
   40       -0.001  -0.008   0.000  -0.009
   41       -0.001  -0.013   0.000  -0.015
   42        0.000   0.006   0.000   0.007
   43        0.000   0.013   0.000   0.013
   44        0.000   0.007   0.000   0.007
   45       -0.000   0.002   0.000   0.002
   46        0.000   0.004   0.000   0.005
   47        0.002   0.027   0.000   0.029
   48       -0.001  -0.002   0.000  -0.003
   49       -0.001  -0.007   0.000  -0.008
   50        0.001  -0.019   0.000  -0.019
   51       -0.012  -0.055   0.000  -0.066
   52       -0.000  -0.010   0.000  -0.010
   53        0.001   0.055   0.000   0.056
   54        0.002   0.060   0.000   0.063
   55        0.001   0.012   0.000   0.013
   56       -0.051  -0.071  -3.135  -3.258
   57        0.003   0.006   0.024   0.033
--------------------------------------------------
tot         -0.058   0.147  -3.111  -3.022
 

 total amount of memory used by VASP MPI-rank0   178960. kBytes
=======================================================================

   base      :      30000. kBytes
   nonl-proj :       5281. kBytes
   fftplans  :      13455. kBytes
   grid      :      34560. kBytes
   one-center:         62. kBytes
   HF        :         23. kBytes
   nonlr-proj:      18650. kBytes
   wavefun   :      76929. kBytes
 
  
  
 General timing and accounting informations for this job:
 ========================================================
  
                  Total CPU time used (sec):    47729.012
                            User time (sec):    47673.097
                          System time (sec):       55.915
                         Elapsed time (sec):    47745.933
  
                   Maximum memory used (kb):      418344.
                   Average memory used (kb):           0.
  
                          Minor page faults:       458591
                          Major page faults:            0
                 Voluntary context switches:         1305
