 vasp.5.4.4.18Apr17-6-g9f103f2a35 (build Feb 25 2019 10:51:38) complex          
  
 executed on             LinuxIFC date 2022.01.30  06:10:27
 running on   32 total cores
 distrk:  each k-point on   32 cores,    1 groups
 distr:  one band on NCORES_PER_BAND=  32 cores,    1 groups


--------------------------------------------------------------------------------------------------------


 INCAR:
 POTCAR:    PAW_PBE C 08Apr2002                   
 POTCAR:    PAW_PBE N 08Apr2002                   
 POTCAR:    PAW_PBE Zn 06Sep2000                  
 POTCAR:    PAW_PBE Fe 06Sep2000                  

 ----------------------------------------------------------------------------- 
|                                                                             |
|           W    W    AA    RRRRR   N    N  II  N    N   GGGG   !!!           |
|           W    W   A  A   R    R  NN   N  II  NN   N  G    G  !!!           |
|           W    W  A    A  R    R  N N  N  II  N N  N  G       !!!           |
|           W WW W  AAAAAA  RRRRR   N  N N  II  N  N N  G  GGG   !            |
|           WW  WW  A    A  R   R   N   NN  II  N   NN  G    G                |
|           W    W  A    A  R    R  N    N  II  N    N   GGGG   !!!           |
|                                                                             |
|      For optimal performance we recommend to set                            |
|        NCORE= 4 - approx SQRT( number of cores)                             |
|      NCORE specifies how many cores store one orbital (NPAR=cpu/NCORE).     |
|      This setting can  greatly improve the performance of VASP for DFT.     |
|      The default,   NCORE=1            might be grossly inefficient         |
|      on modern multi-core architectures or massively parallel machines.     |
|      Do your own testing !!!!                                               |
|      Unfortunately you need to use the default for GW and RPA calculations. |
|      (for HF NCORE is supported but not extensively tested yet)             |
|                                                                             |
 ----------------------------------------------------------------------------- 

 POTCAR:    PAW_PBE C 08Apr2002                   
   VRHFIN =C: s2p2                                                              
   LEXCH  = PE                                                                  
   EATOM  =   147.1560 eV,   10.8157 Ry                                         
                                                                                
   TITEL  = PAW_PBE C 08Apr2002                                                 
   LULTRA =        F    use ultrasoft PP ?                                      
   IUNSCR =        1    unscreen: 0-lin 1-nonlin 2-no                           
   RPACOR =    1.200    partial core radius                                     
   POMASS =   12.011; ZVAL   =    4.000    mass and valenz                      
   RCORE  =    1.500    outmost cutoff radius                                   
   RWIGS  =    1.630; RWIGS  =    0.863    wigner-seitz radius (au A)           
   ENMAX  =  400.000; ENMIN  =  300.000 eV                                      
   ICORE  =        2    local potential                                         
   LCOR   =        T    correct aug charges                                     
   LPAW   =        T    paw PP                                                  
   EAUG   =  644.873                                                            
   DEXC   =    0.000                                                            
   RMAX   =    1.529    core radius for proj-oper                               
   RAUG   =    1.300    factor for augmentation sphere                          
   RDEP   =    1.501    radius for radial grids                                 
   RDEPT  =    1.300    core radius for aug-charge                              
                                                                                
   Atomic configuration                                                         
    4 entries                                                                   
     n  l   j            E        occ.                                          
     1  0  0.50      -273.3789   2.0000                                         
     2  0  0.50       -13.7508   2.0000                                         
     2  1  0.50        -5.2854   2.0000                                         
     3  2  1.50        -5.4423   0.0000                                         
   Description                                                                  
     l       E           TYP  RCUT    TYP  RCUT                                 
     0    -13.7508458     23  1.200                                             
     0     -8.2022199     23  1.200                                             
     1     -5.2854383     23  1.500                                             
     1     34.0145650     23  1.500                                             
     2     -5.4423304      7  1.500                                             
  local pseudopotential read in
  partial core-charges read in
  partial kinetic energy density read in
  atomic valenz-charges read in
  non local Contribution for L=           0  read in
    real space projection operators read in
  non local Contribution for L=           0  read in
    real space projection operators read in
  non local Contribution for L=           1  read in
    real space projection operators read in
  non local Contribution for L=           1  read in
    real space projection operators read in
    PAW grid and wavefunctions read in
 
   number of l-projection  operators is LMAX  =           4
   number of lm-projection operators is LMMAX =           8
 
 POTCAR:    PAW_PBE N 08Apr2002                   
   VRHFIN =N: s2p3                                                              
   LEXCH  = PE                                                                  
   EATOM  =   264.5486 eV,   19.4438 Ry                                         
                                                                                
   TITEL  = PAW_PBE N 08Apr2002                                                 
   LULTRA =        F    use ultrasoft PP ?                                      
   IUNSCR =        1    unscreen: 0-lin 1-nonlin 2-no                           
   RPACOR =    1.200    partial core radius                                     
   POMASS =   14.001; ZVAL   =    5.000    mass and valenz                      
   RCORE  =    1.500    outmost cutoff radius                                   
   RWIGS  =    1.400; RWIGS  =    0.741    wigner-seitz radius (au A)           
   ENMAX  =  400.000; ENMIN  =  300.000 eV                                      
   ICORE  =        2    local potential                                         
   LCOR   =        T    correct aug charges                                     
   LPAW   =        T    paw PP                                                  
   EAUG   =  627.112                                                            
   DEXC   =    0.000                                                            
   RMAX   =    1.529    core radius for proj-oper                               
   RAUG   =    1.300    factor for augmentation sphere                          
   RDEP   =    1.514    radius for radial grids                                 
   RDEPT  =    1.338    core radius for aug-charge                              
                                                                                
   Atomic configuration                                                         
    4 entries                                                                   
     n  l   j            E        occ.                                          
     1  0  0.50      -384.7179   2.0000                                         
     2  0  0.50       -18.5828   2.0000                                         
     2  1  0.50        -7.0898   3.0000                                         
     3  2  1.50        -6.8029   0.0000                                         
   Description                                                                  
     l       E           TYP  RCUT    TYP  RCUT                                 
     0    -18.5828119     23  1.200                                             
     0    -13.5018863     23  1.200                                             
     1     -7.0897853     23  1.500                                             
     1      9.5240782     23  1.500                                             
     2     -6.8029130      7  1.500                                             
  local pseudopotential read in
  partial core-charges read in
  partial kinetic energy density read in
  atomic valenz-charges read in
  non local Contribution for L=           0  read in
    real space projection operators read in
  non local Contribution for L=           0  read in
    real space projection operators read in
  non local Contribution for L=           1  read in
    real space projection operators read in
  non local Contribution for L=           1  read in
    real space projection operators read in
    PAW grid and wavefunctions read in
 
   number of l-projection  operators is LMAX  =           4
   number of lm-projection operators is LMMAX =           8
 
 POTCAR:    PAW_PBE Zn 06Sep2000                  
   VRHFIN =Zn: d10 p2                                                           
   LEXCH  = PE                                                                  
   EATOM  =  1748.8345 eV,  128.5357 Ry                                         
                                                                                
   TITEL  = PAW_PBE Zn 06Sep2000                                                
   LULTRA =        F    use ultrasoft PP ?                                      
   IUNSCR =        1    unscreen: 0-lin 1-nonlin 2-no                           
   RPACOR =    2.000    partial core radius                                     
   POMASS =   65.390; ZVAL   =   12.000    mass and valenz                      
   RCORE  =    2.300    outmost cutoff radius                                   
   RWIGS  =    2.400; RWIGS  =    1.270    wigner-seitz radius (au A)           
   ENMAX  =  276.723; ENMIN  =  207.542 eV                                      
   RCLOC  =    1.828    cutoff for local pot                                    
   LCOR   =        T    correct aug charges                                     
   LPAW   =        T    paw PP                                                  
   EAUG   =  575.892                                                            
   DEXC   =    0.000                                                            
   RMAX   =    2.347    core radius for proj-oper                               
   RAUG   =    1.300    factor for augmentation sphere                          
   RDEP   =    2.324    radius for radial grids                                 
   RDEPT  =    1.788    core radius for aug-charge                              
                                                                                
   Atomic configuration                                                         
    9 entries                                                                   
     n  l   j            E        occ.                                          
     1  0  0.50     -9524.6913   2.0000                                         
     2  0  0.50     -1158.1882   2.0000                                         
     2  1  1.50     -1003.8506   6.0000                                         
     3  0  0.50      -129.2194   2.0000                                         
     3  1  1.50       -83.3890   6.0000                                         
     3  2  2.50       -10.1410  10.0000                                         
     4  0  0.50        -5.9785   2.0000                                         
     4  1  0.50        -4.0817   0.0000                                         
     4  3  2.50        -1.3606   0.0000                                         
   Description                                                                  
     l       E           TYP  RCUT    TYP  RCUT                                 
     2    -10.1410010     23  2.300                                             
     2    -11.5015836     23  2.300                                             
     0     -5.9785163     23  2.300                                             
     0      1.1858015     23  2.300                                             
     1     -2.7211652     23  2.300                                             
     1     13.2444212     23  2.300                                             
  local pseudopotential read in
  partial core-charges read in
  partial kinetic energy density read in
  atomic valenz-charges read in
  non local Contribution for L=           2  read in
    real space projection operators read in
  non local Contribution for L=           2  read in
    real space projection operators read in
  non local Contribution for L=           0  read in
    real space projection operators read in
  non local Contribution for L=           0  read in
    real space projection operators read in
  non local Contribution for L=           1  read in
    real space projection operators read in
  non local Contribution for L=           1  read in
    real space projection operators read in
    PAW grid and wavefunctions read in
 
   number of l-projection  operators is LMAX  =           6
   number of lm-projection operators is LMMAX =          18
 
 POTCAR:    PAW_PBE Fe 06Sep2000                  
   VRHFIN =Fe:  d7 s1                                                           
   LEXCH  = PE                                                                  
   EATOM  =   594.3153 eV,   43.6809 Ry                                         
                                                                                
   TITEL  = PAW_PBE Fe 06Sep2000                                                
   LULTRA =        F    use ultrasoft PP ?                                      
   IUNSCR =        1    unscreen: 0-lin 1-nonlin 2-no                           
   RPACOR =    2.000    partial core radius                                     
   POMASS =   55.847; ZVAL   =    8.000    mass and valenz                      
   RCORE  =    2.300    outmost cutoff radius                                   
   RWIGS  =    2.460; RWIGS  =    1.302    wigner-seitz radius (au A)           
   ENMAX  =  267.882; ENMIN  =  200.911 eV                                      
   RCLOC  =    1.701    cutoff for local pot                                    
   LCOR   =        T    correct aug charges                                     
   LPAW   =        T    paw PP                                                  
   EAUG   =  511.368                                                            
   DEXC   =    0.000                                                            
   RMAX   =    2.356    core radius for proj-oper                               
   RAUG   =    1.300    factor for augmentation sphere                          
   RDEP   =    2.442    radius for radial grids                                 
   RDEPT  =    1.890    core radius for aug-charge                              
                                                                                
   Atomic configuration                                                         
    9 entries                                                                   
     n  l   j            E        occ.                                          
     1  0  0.50     -6993.8440   2.0000                                         
     2  0  0.50      -814.6047   2.0000                                         
     2  1  1.50      -693.3689   6.0000                                         
     3  0  0.50       -89.4732   2.0000                                         
     3  1  1.50       -55.6373   6.0000                                         
     3  2  2.50        -3.8151   7.0000                                         
     4  0  0.50        -4.2551   1.0000                                         
     4  1  1.50        -3.4015   0.0000                                         
     4  3  2.50        -1.3606   0.0000                                         
   Description                                                                  
     l       E           TYP  RCUT    TYP  RCUT                                 
     2     -3.8151135     23  2.300                                             
     2     -5.1756961     23  2.300                                             
     0     -4.2550963     23  2.300                                             
     0      7.2035603     23  2.300                                             
     1     -2.7211652     23  2.300                                             
     1     18.4316424     23  2.300                                             
  local pseudopotential read in
  partial core-charges read in
  partial kinetic energy density read in
  atomic valenz-charges read in
  non local Contribution for L=           2  read in
    real space projection operators read in
  non local Contribution for L=           2  read in
    real space projection operators read in
  non local Contribution for L=           0  read in
    real space projection operators read in
  non local Contribution for L=           0  read in
    real space projection operators read in
  non local Contribution for L=           1  read in
    real space projection operators read in
  non local Contribution for L=           1  read in
    real space projection operators read in
    PAW grid and wavefunctions read in
 
   number of l-projection  operators is LMAX  =           6
   number of lm-projection operators is LMMAX =          18
 

 ----------------------------------------------------------------------------- 
|                                                                             |
|  ADVICE TO THIS USER RUNNING 'VASP/VAMP'   (HEAR YOUR MASTER'S VOICE ...):  |
|                                                                             |
|      You have a (more or less) 'large supercell' and for larger cells       |
|      it might be more efficient to use real space projection opertators     |
|      So try LREAL= Auto  in the INCAR   file.                               |
|      Mind:          For very  accurate calculation you might also keep the  |
|      reciprocal projection scheme          (i.e. LREAL=.FALSE.)             |
|                                                                             |
 ----------------------------------------------------------------------------- 

  PAW_PBE C 08Apr2002                   :
 energy of atom  1       EATOM= -147.1560
 kinetic energy error for atom=    0.0076 (will be added to EATOM!!)
  PAW_PBE N 08Apr2002                   :
 energy of atom  2       EATOM= -264.5486
 kinetic energy error for atom=    0.0138 (will be added to EATOM!!)
  PAW_PBE Zn 06Sep2000                  :
 energy of atom  3       EATOM=-1748.8345
 kinetic energy error for atom=    0.0029 (will be added to EATOM!!)
  PAW_PBE Fe 06Sep2000                  :
 energy of atom  4       EATOM= -594.3153
 kinetic energy error for atom=    0.0026 (will be added to EATOM!!)
 
 
 POSCAR:  C  N Zn Fe                             
  positions in cartesian coordinates
  No initial velocities read in
 exchange correlation table for  LEXCH =        8
   RHO(1)=    0.500       N(1)  =     2000
   RHO(2)=  100.500       N(2)  =     4000

 VTST: version 3.2, (02/03/18)

 CHAIN: initializing optimizer
 
 OPT: Using VASP Conjugate-Gradient optimizer
 CHAIN: Read ICHAIN            0
 
 POSCAR:  C  N Zn Fe                             
  positions in cartesian coordinates
  No initial velocities read in
 


--------------------------------------------------------------------------------------------------------


 ion  position               nearest neighbor table
   1  0.226  0.002  0.499-  18 1.45   4 1.46   3 1.47
   2  0.057  0.100  0.502-   7 1.43   3 1.43  33 1.45
   3  0.114  0.001  0.501-   2 1.43  16 1.43   1 1.47
   4  0.282  0.106  0.498-   1 1.46   5 1.46  20 1.47
   5  0.222  0.205  0.498-  53 1.38   7 1.45   4 1.46
   6  0.052  0.299  0.502-  10 1.41  37 1.43   7 1.43
   7  0.110  0.201  0.501-   2 1.43   6 1.43   5 1.45
   8  0.210  0.398  0.491-  53 1.35  10 1.41  11 1.45
   9  0.049  0.500  0.501-  41 1.41  10 1.42  14 1.43
  10  0.103  0.400  0.498-   8 1.41   6 1.41   9 1.42
  11  0.263  0.500  0.479-  55 1.32  12 1.44   8 1.45
  12  0.210  0.601  0.489-  14 1.40  50 1.42  11 1.44
  13  0.052  0.702  0.501-  14 1.41  45 1.43  17 1.43
  14  0.103  0.601  0.498-  12 1.40  13 1.41   9 1.43
  15  0.222  0.799  0.495-  50 1.43  17 1.45  18 1.45
  16  0.057  0.901  0.502-  17 1.43   3 1.43  49 1.45
  17  0.111  0.800  0.499-  16 1.43  13 1.43  15 1.45
  18  0.280  0.900  0.497-   1 1.45  15 1.45  28 1.46
  19  0.558  0.997  0.502-  22 1.43  29 1.43  21 1.44
  20  0.395  0.102  0.498-  54 1.38  21 1.45   4 1.47
  21  0.447  0.998  0.500-  19 1.44  28 1.44  20 1.45
  22  0.614  0.097  0.503-  23 1.42  19 1.43  31 1.44
  23  0.558  0.195  0.502-  54 1.36  22 1.42  24 1.48
  24  0.613  0.300  0.505-  51 1.41  35 1.43  23 1.48
  25  0.612  0.501  0.506-  56 1.41  51 1.43  39 1.44
  26  0.615  0.696  0.503-  56 1.37  43 1.42  27 1.46
  27  0.558  0.798  0.501-  29 1.43  52 1.43  26 1.46
  28  0.392  0.897  0.498-  52 1.43  21 1.44  18 1.46
  29  0.614  0.898  0.502-  27 1.43  19 1.43  47 1.44
  30  0.891  1.000  0.504-  49 1.42  33 1.42  32 1.44
  31  0.724  0.098  0.505-  32 1.42  36 1.42  22 1.44
  32  0.780  0.999  0.505-  31 1.42  47 1.43  30 1.44
  33  0.946  0.099  0.504-  30 1.42  34 1.43   2 1.45
  34  0.889  0.198  0.505-  37 1.42  36 1.43  33 1.43
  35  0.723  0.298  0.506-  40 1.42  36 1.43  24 1.43
  36  0.779  0.198  0.506-  31 1.42  35 1.43  34 1.43
  37  0.942  0.299  0.505-  34 1.42   6 1.43  38 1.43
  38  0.887  0.399  0.507-  41 1.43  40 1.43  37 1.43
  39  0.722  0.500  0.507-  44 1.43  40 1.43  25 1.44
  40  0.777  0.399  0.507-  35 1.42  38 1.43  39 1.43
  41  0.941  0.500  0.505-   9 1.41  42 1.43  38 1.43
  42  0.888  0.601  0.506-  44 1.42  41 1.43  45 1.43
  43  0.724  0.699  0.506-  44 1.42  26 1.42  48 1.43
  44  0.779  0.600  0.507-  42 1.42  43 1.42  39 1.43
  45  0.943  0.701  0.505-  46 1.42  13 1.43  42 1.43
  46  0.889  0.801  0.505-  45 1.42  48 1.43  49 1.43
  47  0.724  0.899  0.504-  48 1.42  32 1.43  29 1.44
  48  0.779  0.800  0.505-  47 1.42  43 1.43  46 1.43
  49  0.946  0.901  0.504-  30 1.42  46 1.43  16 1.45
  50  0.272  0.696  0.487-  12 1.42  15 1.43  58 1.94
  51  0.559  0.399  0.507-  24 1.41  25 1.43  57 1.96
  52  0.448  0.797  0.498-  27 1.43  28 1.43  58 1.93
  53  0.267  0.307  0.494-   8 1.35   5 1.38  57 2.05
  54  0.454  0.195  0.496-  23 1.36  20 1.38  57 2.10
  55  0.360  0.506  0.459-  11 1.32  58 1.91  57 2.03
  56  0.561  0.601  0.502-  26 1.37  25 1.41  58 2.06
  57  0.415  0.360  0.489-  51 1.96  55 2.03  53 2.05  54 2.10
  58  0.413  0.648  0.479-  55 1.91  52 1.93  50 1.94  56 2.06
 
  LATTYP: Found a triclinic cell.
 ALAT       =    13.0316850870
 B/A-ratio  =     0.9456773866
 C/A-ratio  =     1.5179709337
 COS(alpha) =     0.0002572420
 COS(beta)  =     0.0011244789
 COS(gamma) =     0.0040054827
  
  Lattice vectors:
  
 A1 = ( -13.0316715259,   0.0170663410,  -0.0078858364)
 A2 = (  -0.0332226714,  12.3237250407,  -0.0013493144)
 A3 = (  -0.0102698759,   0.0028951376, -19.7817163016)


Analysis of symmetry for initial positions (statically):
=====================================================================
 Subroutine PRICEL returns:
 Original cell was already a primitive cell.
 

 Routine SETGRP: Setting up the symmetry group for a 
 triclinic supercell.


 Subroutine GETGRP returns: Found  1 space group operations
 (whereof  1 operations were pure point group operations)
 out of a pool of  2 trial point group operations.


The static configuration has the point symmetry C_1 .


Analysis of symmetry for dynamics (positions and initial velocities):
=====================================================================
 Subroutine PRICEL returns:
 Original cell was already a primitive cell.
 

 Routine SETGRP: Setting up the symmetry group for a 
 triclinic supercell.


 Subroutine GETGRP returns: Found  1 space group operations
 (whereof  1 operations were pure point group operations)
 out of a pool of  2 trial point group operations.


The dynamic configuration has the point symmetry C_1 .


Analysis of structural, dynamic, and magnetic symmetry:
=====================================================================
 Subroutine PRICEL returns:
 Original cell was already a primitive cell.
 

 Routine SETGRP: Setting up the symmetry group for a 
 triclinic supercell.


 Subroutine GETGRP returns: Found  1 space group operations
 (whereof  1 operations were pure point group operations)
 out of a pool of  2 trial point group operations.


The magnetic configuration has the point symmetry C_1 .


 Subroutine INISYM returns: Found  1 space group operations
 (whereof  1 operations are pure point group operations),
 and found     1 'primitive' translations

 
 
 KPOINTS: KPOINTS created by Atomic Simulation Env

Automatic generation of k-mesh.
Space group operators:
 irot       det(A)        alpha          n_x          n_y          n_z        tau_x        tau_y        tau_z
    1     1.000000     0.000001     1.000000     0.000000     0.000000     0.000000     0.000000     0.000000
 
 Subroutine IBZKPT returns following result:
 ===========================================
 
 Found      1 irreducible k-points:
 
 Following reciprocal coordinates:
            Coordinates               Weight
  0.000000  0.000000  0.000000      1.000000
 
 Following cartesian coordinates:
            Coordinates               Weight
  0.000000  0.000000  0.000000      1.000000
 
 
 Subroutine IBZKPT_HF returns following result:
 ==============================================
 
 Found      1 k-points in 1st BZ
 the following      1 k-points will be used (e.g. in the exchange kernel)
 Following reciprocal coordinates:   # in IRBZ
  0.000000  0.000000  0.000000    1.00000000   1 t-inv F


--------------------------------------------------------------------------------------------------------




 Dimension of arrays:
   k-points           NKPTS =      1   k-points in BZ     NKDIM =      1   number of bands    NBANDS=    158
   number of dos      NEDOS =    301   number of ions     NIONS =     58
   non local maximal  LDIM  =      6   non local SUM 2l+1 LMDIM =     18
   total plane-waves  NPLWV = ******
   max r-space proj   IRMAX =      1   max aug-charges    IRDMAX=  14148
   dimension x,y,z NGX =    96 NGY =   90 NGZ =  144
   dimension x,y,z NGXF=   192 NGYF=  180 NGZF=  288
   support grid    NGXF=   192 NGYF=  180 NGZF=  288
   ions per type =              52   4   1   1
   NGX,Y,Z   is equivalent  to a cutoff of  12.25, 12.14, 12.10 a.u.
   NGXF,Y,Z  is equivalent  to a cutoff of  24.49, 24.28, 24.20 a.u.

 SYSTEM =  unknown system                          
 POSCAR =   C  N Zn Fe                             

 Startparameter for this run:
   NWRITE =      2    write-flag & timer
   PREC   = accura    normal or accurate (medium, high low for compatibility)
   ISTART =      1    job   : 0-new  1-cont  2-samecut
   ICHARG =      0    charge: 1-file 2-atom 10-const
   ISPIN  =      2    spin polarized calculation?
   LNONCOLLINEAR =      F non collinear calculations
   LSORBIT =      F    spin-orbit coupling
   INIWAV =      1    electr: 0-lowe 1-rand  2-diag
   LASPH  =      T    aspherical Exc in radial PAW
   METAGGA=      F    non-selfconsistent MetaGGA calc.

 Electronic Relaxation 1
   ENCUT  =  500.0 eV  36.75 Ry    6.06 a.u.  23.76 22.47 36.07*2*pi/ulx,y,z
   ENINI  =  500.0     initial cutoff
   ENAUG  =  644.9 eV  augmentation charge cutoff
   NELM   =    250;   NELMIN=  2; NELMDL=  0     # of ELM steps 
   EDIFF  = 0.1E-03   stopping-criterion for ELM
   LREAL  =      F    real-space projection
   NLSPLINE    = F    spline interpolate recip. space projectors
   LCOMPAT=      F    compatible to vasp.4.4
   GGA_COMPAT  = T    GGA compatible to vasp.4.4-vasp.4.6
   LMAXPAW     = -100 max onsite density
   LMAXMIX     =    2 max onsite mixed and CHGCAR
   VOSKOWN=      0    Vosko Wilk Nusair interpolation
   ROPT   =    0.00000   0.00000   0.00000   0.00000
 Ionic relaxation
   EDIFFG = -.3E-01   stopping-criterion for IOM
   NSW    =      0    number of steps for IOM
   NBLOCK =      1;   KBLOCK =      1    inner block; outer block 
   IBRION =     -1    ionic relax: 0-MD 1-quasi-New 2-CG
   NFREE  =      1    steps in history (QN), initial steepest desc. (CG)
   ISIF   =      2    stress and relaxation
   IWAVPR =     10    prediction:  0-non 1-charg 2-wave 3-comb
   ISYM   =      3    0-nonsym 1-usesym 2-fastsym
   LCORR  =      T    Harris-Foulkes like correction to forces

   POTIM  = 0.5000    time-step for ionic-motion
   TEIN   =    0.0    initial temperature
   TEBEG  =    0.0;   TEEND  =   0.0 temperature during run
   SMASS  =  -3.00    Nose mass-parameter (am)
   estimated Nose-frequenzy (Omega)   =  0.10E-29 period in steps =****** mass=  -0.388E-26a.u.
   SCALEE = 1.0000    scale energy and forces
   NPACO  =    256;   APACO  = 16.0  distance and # of slots for P.C.
   PSTRESS=    0.0 pullay stress

  Mass of Ions in am
   POMASS =  12.01 14.00 65.39 55.85
  Ionic Valenz
   ZVAL   =   4.00  5.00 12.00  8.00
  Atomic Wigner-Seitz radii
   RWIGS  =  -1.00 -1.00 -1.00 -1.00
  virtual crystal weights 
   VCA    =   1.00  1.00  1.00  1.00
   NELECT =     248.0000    total number of electrons
   NUPDOWN=      -1.0000    fix difference up-down

 DOS related values:
   EMIN   =  10.00;   EMAX   =-10.00  energy-range for DOS
   EFERMI =   0.00
   ISMEAR =     0;   SIGMA  =   0.10  broadening in eV -4-tet -1-fermi 0-gaus

 Electronic relaxation 2 (details)
   IALGO  =     53    algorithm
   LDIAG  =      T    sub-space diagonalisation (order eigenvalues)
   LSUBROT=      F    optimize rotation matrix (better conditioning)
   TURBO    =      0    0=normal 1=particle mesh
   IRESTART =      0    0=no restart 2=restart with 2 vectors
   NREBOOT  =      0    no. of reboots
   NMIN     =      0    reboot dimension
   EREF     =   0.00    reference energy to select bands
   IMIX   =      4    mixing-type and parameters
     AMIX     =   0.40;   BMIX     =  1.00
     AMIX_MAG =   1.60;   BMIX_MAG =  1.00
     AMIN     =   0.10
     WC   =   100.;   INIMIX=   1;  MIXPRE=   1;  MAXMIX= -45

 Intra band minimization:
   WEIMIN = 0.0000     energy-eigenvalue tresh-hold
   EBREAK =  0.16E-06  absolut break condition
   DEPER  =   0.30     relativ break condition  

   TIME   =   0.20     timestep for ELM

  volume/ion in A,a.u.               =      54.77       369.63
  Fermi-wavevector in a.u.,A,eV,Ry     =   0.699666  1.322176  6.660489  0.489532
  Thomas-Fermi vector in A             =   1.783607
 
 Write flags
   LWAVE        =      T    write WAVECAR
   LDOWNSAMPLE  =      F    k-point downsampling of WAVECAR
   LCHARG       =      T    write CHGCAR
   LVTOT        =      F    write LOCPOT, total local potential
   LVHAR        =      F    write LOCPOT, Hartree potential only
   LELF         =      F    write electronic localiz. function (ELF)
   LORBIT       =     11    0 simple, 1 ext, 2 COOP (PROOUT), +10 PAW based schemes


 Dipole corrections
   LMONO  =      F    monopole corrections only (constant potential shift)
   LDIPOL =      T    correct potential (dipole corrections)
   IDIPOL =      3    1-x, 2-y, 3-z, 4-all directions 
   EPSILON=  1.0000000 bulk dielectric constant

 Exchange correlation treatment:
   GGA     =    PE    GGA type
   LEXCH   =     8    internal setting for exchange type
   VOSKOWN=      0    Vosko Wilk Nusair interpolation
   EXXOEP  =     0    0=HF, 1=EXX-LHF (local Hartree Fock) 2=EXX OEP
   LHFCALC =     T    Hartree Fock is set to
   LSYMGRAD=     F    symmetrize gradient (conserves proper symmetry)
   PRECFOCK=normal    Normal, Fast or Accurate (Low or Medium for compatibility)
   LRHFCALC=     F    long range Hartree Fock
   LRSCOR  =     F    long range correlation only (use DFT for short range part)
   LTHOMAS =     F    Thomas Fermi screening in HF
   LMODELHF=     F    short range full HF, long range fraction AEXX
   ENCUT4O =  -1.0   cutoff for four orbital integrals eV
   LMAXFOCK=     4    L truncation for augmentation on plane wave grid
   LMAXFOCKAE=  -1    L truncation for all-electron charge restoration on plane wave grid
   NMAXFOCKAE=   1    number of basis functions for all-electron charge restoration
   LFOCKAEDFT=     F  apply the AE augmentation even for DFT
   NKREDX  =     1    reduce k-point grid by
   NKREDY  =     1    reduce k-point grid by
   NKREDZ  =     1    reduce k-point grid by
   SHIFTRED=     F    shift reduced grid of Gamma
   HFKIDENT=     F    idential grid for each k-point
   ODDONLY =     F    use only odd q-grid points
   EVENONLY=     F    use only even q-grid points
   HFALPHA =   -1.0000 decay constant for conv. correction
   MCALPHA =    0.0000 extent of test-charge in conv. correction in multipole expansion
   AEXX    =    0.2500 exact exchange contribution
   HFSCREEN=    0.2000 screening length (either q_TF or 0.3 A-1)
   HFSCREENC=   0.2000 screening length for correlation (either q_TF or 0.3 A-1)
   HFRCUT  =    0.0000 spherical cutoff for potential kernel
   ALDAX   =    0.7500 LDA exchange part
   AGGAX   =    0.7500 GGA exchange part
   ALDAC   =    1.0000 LDA correlation
   AGGAC   =    1.0000 GGA correlation
   ENCUTFOCK=  -1.0 apply spherical cutoff to Coloumb kernel
   NBANDSGWLOW=     1    first orbital included in HF term
   NBLOCK_FOCK=    64    blocking factor in FOCK_ACC
 Linear response parameters
   LEPSILON=     F    determine dielectric tensor
   LRPA    =     F    only Hartree local field effects (RPA)
   LNABLA  =     F    use nabla operator in PAW spheres
   LVEL    =     F    velocity operator in full k-point grid
   LINTERFAST=   F  fast interpolation
   KINTER  =     0    interpolate to denser k-point grid
   CSHIFT  =0.1000    complex shift for real part using Kramers Kronig
   OMEGAMAX=  -1.0    maximum frequency
   DEG_THRESHOLD= 0.2000000E-02 threshold for treating states as degnerate
   RTIME   =   -0.100 relaxation time in fs
  (WPLASMAI=    0.000 imaginary part of plasma frequency in eV, 0.658/RTIME)
   DFIELD  = 0.0000000 0.0000000 0.0000000 field for delta impulse in time
 
 Orbital magnetization related:
   ORBITALMAG=     F  switch on orbital magnetization
   LCHIMAG   =     F  perturbation theory with respect to B field
   DQ        =  0.001000  dq finite difference perturbation B field
   LLRAUG    =     F  two centre corrections for induced B field



--------------------------------------------------------------------------------------------------------


 Static calculation
 charge density and potential will be updated during run
 spin polarized calculation
 Conjugate gradient for all bands (Freysoldt, et al. PRB 79, 241103 (2009))
 perform sub-space diagonalisation
    before iterative eigenvector-optimisation
 modified Broyden-mixing scheme, WC =      100.0
 initial mixing is a Kerker type mixing with AMIX =  0.4000 and BMIX =      1.0000
 Hartree-type preconditioning will be used
 using additional bands           34
 reciprocal scheme for non local part
 use partial core corrections
 no Harris-corrections to forces 
 use gradient corrections 
 use of overlap-Matrix (Vanderbilt PP)
 Gauss-broadening in eV      SIGMA  =   0.10


--------------------------------------------------------------------------------------------------------


  energy-cutoff  :      500.00
  volume of cell :     3176.91
      direct lattice vectors                 reciprocal lattice vectors
    13.031671526 -0.017066341  0.007885836     0.076736422  0.000206864 -0.000039808
    -0.033222671 12.323725041 -0.001349314     0.000106260  0.081144584  0.000011821
     0.010269876 -0.002895138 19.781716302    -0.000030583  0.000005452  0.050551748

  length of vectors
    13.031685087 12.323769896 19.781719179     0.076736711  0.081144655  0.050551757


 
 old parameters found on file WAVECAR:
  energy-cutoff  :      500.00
  volume of cell :     3176.91
      direct lattice vectors                 reciprocal lattice vectors
    13.018000000  0.000000000  0.000000000     0.076816715  0.000104977 -0.000016232
    -0.016804030 12.296288518  0.000000000     0.000000000  0.081325353 -0.000007262
     0.004191301  0.001772311 19.846599478     0.000000000  0.000000000  0.050386466

  length of vectors

 
 k-points in units of 2pi/SCALE and weight: KPOINTS created by Atomic Simulation Env
   0.00000000  0.00000000  0.00000000       1.000
 
 k-points in reciprocal lattice and weights: KPOINTS created by Atomic Simulation Env
   0.00000000  0.00000000  0.00000000       1.000
 
 position of ions in fractional coordinates (direct lattice) 
   0.22644424  0.00243977  0.49866771
   0.05678235  0.09990526  0.50202430
   0.11406072  0.00107677  0.50056125
   0.28230826  0.10558468  0.49801815
   0.22175025  0.20547581  0.49784855
   0.05155806  0.29894826  0.50223965
   0.11043681  0.20095518  0.50061932
   0.20995883  0.39823477  0.49061698
   0.04889888  0.50030544  0.50093555
   0.10275306  0.40010535  0.49844685
   0.26310538  0.50037868  0.47883512
   0.20983878  0.60116248  0.48931417
   0.05222695  0.70194940  0.50139030
   0.10320919  0.60103000  0.49827237
   0.22222805  0.79868949  0.49474578
   0.05738780  0.90113414  0.50153069
   0.11136683  0.80036373  0.49937214
   0.27972201  0.89979642  0.49680531
   0.55760743  0.99738284  0.50153653
   0.39528364  0.10209378  0.49762386
   0.44708155  0.99814586  0.49962588
   0.61410521  0.09690609  0.50347724
   0.55805847  0.19525983  0.50186758
   0.61334786  0.30031493  0.50528312
   0.61182466  0.50055603  0.50563778
   0.61505039  0.69631344  0.50322112
   0.55783163  0.79806974  0.50099568
   0.39160179  0.89660599  0.49807249
   0.61370314  0.89791447  0.50225327
   0.89060083  0.99963411  0.50440797
   0.72422306  0.09808216  0.50496050
   0.77985380  0.99908930  0.50474245
   0.94591033  0.09949717  0.50408248
   0.88862521  0.19841916  0.50535815
   0.72334926  0.29813459  0.50612617
   0.77888298  0.19835246  0.50560297
   0.94198009  0.29900138  0.50529769
   0.88675358  0.39901194  0.50657557
   0.72247243  0.49969244  0.50712859
   0.77704880  0.39893515  0.50733964
   0.94096823  0.49976358  0.50545299
   0.88760434  0.60050142  0.50629219
   0.72428228  0.69943399  0.50562012
   0.77850492  0.59952405  0.50687409
   0.94285829  0.70109204  0.50467569
   0.88908182  0.80103420  0.50482032
   0.72388622  0.89944888  0.50414051
   0.77919195  0.80023551  0.50511095
   0.94640816  0.90055769  0.50369877
   0.27182920  0.69575116  0.48663660
   0.55873183  0.39900425  0.50744553
   0.44826174  0.79706671  0.49787350
   0.26669856  0.30653892  0.49408667
   0.45396868  0.19504869  0.49604125
   0.35981065  0.50619655  0.45932287
   0.56089649  0.60080045  0.50201420
   0.41524872  0.36030398  0.48910249
   0.41300530  0.64762943  0.47929035
 
 position of ions in cartesian coordinates  (Angst):
   2.95598712  0.02475880  9.86628551
   0.74180548  1.22878252  9.93121533
   1.49150671  0.00987403  9.90285870
   3.68055524  1.29493677  9.85373762
   2.88806284  2.52700155  9.84977024
   0.66711383  3.68182217  9.93516542
   1.43764130  2.47318224  9.90370901
   2.72792272  4.90273214  9.70636425
   0.62575716  6.16334185  9.90907545
   1.33087053  4.92759159  9.86040454
   3.41699658  6.16065277  9.47358010
   2.71960302  7.40356332  9.68031769
   0.66243308  8.64828842  9.91782546
   1.33013766  7.40372445  9.85668557
   2.87454930  9.83760472  9.78759550
   0.72307148 11.10289798  9.92037447
   1.42983427  9.86011620  9.87823638
   3.62045390 11.08263156  9.82865342
   7.23857184 12.28050358  9.92430473
   5.15292526  1.24998892  9.84683332
   5.79818992 12.29179856  9.88563615
   8.00476860  1.18230587  9.96435583
   7.27110169  2.39535142  9.93193945
   7.98815974  3.68906816  9.99979896
   7.96166103  6.15680937 10.00653238
   7.99716931  8.56922184  9.95848817
   7.24810971  9.82422145  9.91387647
   5.07855340 11.04140044  9.85460705
   7.97290473 11.05372323  9.93905963
  11.57798714 12.30255629  9.98372962
   9.43976440  1.19491575  9.99456402
  10.13478980 12.29773132  9.98947371
  12.32866404  1.20857311  9.97894165
  11.57886984  2.42863450 10.00359146
   9.42174302  3.66031852 10.01734625
  10.14874989  2.42968470 10.00756897
  12.27083090  3.66727174 10.00268050
  11.54782763  4.90071323 10.02738852
   9.40363039  6.14427412 10.03689698
  10.11820135  4.90163696 10.04163812
  12.25097635  6.14142672 10.00547372
  11.55221748  7.38380042 10.02151765
   9.42056437  8.60580751 10.00680165
  10.13050819  7.37361579 10.03216963
  12.26891038  8.62251330  9.98984051
  11.56479422  9.85509038  9.99214265
   9.40874285 11.07074710  9.97725944
  10.13277501  9.84712205  9.99702634
  12.30853423 11.08061539  9.97027417
   3.52427184  8.56819803  9.62771197
   7.27316510  4.90621403 10.04201122
   5.82023212  9.81373932  9.85125175
   3.47041825  3.77171933  9.77557194
   5.91458492  2.39454279  9.81586394
   4.67683422  6.23075670  9.08834907
   7.29461425  7.39307366  9.93431489
   5.40443772  4.43178440  9.67807506
   5.36555565  7.97277089  9.48356885
 


--------------------------------------------------------------------------------------------------------


 k-point  1 :   0.0000 0.0000 0.0000  plane waves:   80679

 maximum and minimum number of plane-waves per node :      2530     2516

 maximum number of plane-waves:     80679
 maximum index in each direction: 
   IXMAX=   23   IYMAX=   22   IZMAX=   36
   IXMIN=  -23   IYMIN=  -22   IZMIN=  -36


 parallel 3D FFT for wavefunctions:
    minimum data exchange during FFTs selected (reduces bandwidth)
 parallel 3D FFT for charge:
    minimum data exchange during FFTs selected (reduces bandwidth)


 FFT grid for exact exchange (Hartree Fock) 
  NGX = 72; NGY = 70; NGZ =112

 
 Radii for the augmentation spheres in the non-local exchange
 for species   1 augmentation radius   0.874 (default was   0.699)
       energy cutoff for augmentation   2000.0
 for species   2 augmentation radius   0.886 (default was   0.709)
       energy cutoff for augmentation   2000.0
 for species   3 augmentation radius   1.190 (default was   0.952)
       energy cutoff for augmentation   2000.0
 for species   4 augmentation radius   1.263 (default was   1.010)
       energy cutoff for augmentation   2000.0

 real space projection operators:
  total allocation   :       2485.55 KBytes
  max/ min on nodes  :        128.31         45.98

 Maximum index for augmentation-charges in exchange          146
  SETUP_FOCK is finished

 total amount of memory used by VASP MPI-rank0   120282. kBytes
=======================================================================

   base      :      30000. kBytes
   nonl-proj :       3785. kBytes
   fftplans  :      12971. kBytes
   grid      :      33177. kBytes
   one-center:         62. kBytes
   HF        :         23. kBytes
   nonlr-proj:       1693. kBytes
   wavefun   :      38571. kBytes
 
     INWAV:  cpu time    1.9725: real time    1.9729
 Broyden mixing: mesh for mixing (old mesh)
   NGX = 47   NGY = 45   NGZ = 73
  (NGX  =192   NGY  =180   NGZ  =288)
  gives a total of 154395 points

 charge density for first step will be calculated from the start-wavefunctions


--------------------------------------------------------------------------------------------------------


 Maximum index for augmentation-charges          256 (set IRDMAX)


--------------------------------------------------------------------------------------------------------


 initial charge from wavefunction
 First call to EWALD:  gamma=   0.121
 Maximum number of real-space cells 3x 3x 2
 Maximum number of reciprocal cells 2x 2x 4

    FEWALD:  cpu time    0.0032: real time    0.0032


--------------------------------------- Iteration      1(   1)  ---------------------------------------


    POTLOK:  cpu time    1.2586: real time    1.2590
    SETDIJ:  cpu time    2.0868: real time    2.0875
    TRIAL :  cpu time   64.0781: real time   64.0913
    CORREC:  cpu time    0.0011: real time    0.0013
    CHARGE:  cpu time    0.1718: real time    0.1718
    --------------------------------------------
      LOOP:  cpu time   67.6038: real time   67.6227

 eigenvalue-minimisations  :     0
 total energy-change (2. order) :-0.5690864E+03  (-0.8459040E+01)
 number of electron     248.0000007 magnetization       2.3232527
 augmentation part       17.7681937 magnetization       1.9136732

 DIPCOR: dipole corrections for dipol
 direction  3 min pos     1,
 dipolmoment          -0.000006      0.000002     -0.011335 electrons x Angstroem
 Tr[quadrupol]     -6744.377997

 energy correction for charged system         0.000000 eV
 dipol+quadrupol energy correction            0.000004 eV
 added-field ion interaction          0.000000 eV  (added to PSCEN)


 Free energy of the ion-electron system (eV)
  ---------------------------------------------------
  alpha Z        PSCENC =       107.13370425
  Ewald energy   TEWEN  =     39101.26281052
  -Hartree energ DENC   =    -48545.34256264
  -exchange      EXHF   =       568.20515634
  -V(xc)+E(xc)   XCENC  =       656.07884765
  PAW double counting   =     28616.46383990   -28820.86822533
  entropy T*S    EENTRO =        -0.03463746
  eigenvalues    EBANDS =     -3195.82949800
  atomic energy  EATOM  =     10943.84007970
  ---------------------------------------------------
  free energy    TOTEN  =      -569.08642888 eV

  energy without entropy =     -569.05179142  energy(sigma->0) =     -569.06911015
  exchange ACFDT corr.  =        -0.10980836  see jH, gK, PRB 81, 115126


--------------------------------------------------------------------------------------------------------




--------------------------------------- Iteration      1(   2)  ---------------------------------------


    POTLOK:  cpu time    1.2666: real time    1.2666
    SETDIJ:  cpu time    2.0856: real time    2.0856
    TRIAL :  cpu time   64.0448: real time   64.0481
    CORREC:  cpu time    0.0011: real time    0.0013
    CHARGE:  cpu time    0.1723: real time    0.1723
    --------------------------------------------
      LOOP:  cpu time   67.5730: real time   67.5768

 eigenvalue-minimisations  :     0
 total energy-change (2. order) :-0.7306942E+01  (-0.9254357E+01)
 number of electron     248.0000007 magnetization       2.1349364
 augmentation part       17.8455769 magnetization       1.9238375

 DIPCOR: dipole corrections for dipol
 direction  3 min pos     1,
 dipolmoment           0.000023     -0.000007      0.045063 electrons x Angstroem
 Tr[quadrupol]     -6744.135107

 energy correction for charged system         0.000000 eV
 dipol+quadrupol energy correction            0.000058 eV
 added-field ion interaction          0.000000 eV  (added to PSCEN)


 Free energy of the ion-electron system (eV)
  ---------------------------------------------------
  alpha Z        PSCENC =       107.13375867
  Ewald energy   TEWEN  =     39101.26281052
  -Hartree energ DENC   =    -48524.93384387
  -exchange      EXHF   =       568.10321198
  -V(xc)+E(xc)   XCENC  =       655.76699785
  PAW double counting   =     28323.94533951   -28528.52718635
  entropy T*S    EENTRO =        -0.01845654
  eigenvalues    EBANDS =     -3222.94990131
  atomic energy  EATOM  =     10943.84007970
  ---------------------------------------------------
  free energy    TOTEN  =      -576.39337075 eV

  energy without entropy =     -576.37491421  energy(sigma->0) =     -576.38414248
  exchange ACFDT corr.  =        -0.10739596  see jH, gK, PRB 81, 115126


--------------------------------------------------------------------------------------------------------




--------------------------------------- Iteration      1(   3)  ---------------------------------------


    POTLOK:  cpu time    1.2705: real time    1.2705
    SETDIJ:  cpu time    2.1168: real time    2.1168
    TRIAL :  cpu time   63.7799: real time   63.7824
    CORREC:  cpu time    0.0011: real time    0.0013
    CHARGE:  cpu time    0.1712: real time    0.1712
    --------------------------------------------
      LOOP:  cpu time   67.3414: real time   67.3440

 eigenvalue-minimisations  :     0
 total energy-change (2. order) :-0.7780202E+01  (-0.6564875E+01)
 number of electron     248.0000007 magnetization       2.0639696
 augmentation part       17.8383627 magnetization       1.9610768

 DIPCOR: dipole corrections for dipol
 direction  3 min pos     1,
 dipolmoment           0.000015     -0.000004      0.028029 electrons x Angstroem
 Tr[quadrupol]     -6743.943078

 energy correction for charged system         0.000000 eV
 dipol+quadrupol energy correction            0.000022 eV
 added-field ion interaction          0.000000 eV  (added to PSCEN)


 Free energy of the ion-electron system (eV)
  ---------------------------------------------------
  alpha Z        PSCENC =       107.13372305
  Ewald energy   TEWEN  =     39101.26281052
  -Hartree energ DENC   =    -48514.25912873
  -exchange      EXHF   =       568.02277174
  -V(xc)+E(xc)   XCENC  =       655.43820250
  PAW double counting   =     28003.12207680   -28209.45001672
  entropy T*S    EENTRO =        -0.01014650
  eigenvalues    EBANDS =     -3239.26563509
  atomic energy  EATOM  =     10943.84007970
  ---------------------------------------------------
  free energy    TOTEN  =      -584.17357275 eV

  energy without entropy =     -584.16342625  energy(sigma->0) =     -584.16849950
  exchange ACFDT corr.  =        -0.05320399  see jH, gK, PRB 81, 115126


--------------------------------------------------------------------------------------------------------




--------------------------------------- Iteration      1(   4)  ---------------------------------------


    POTLOK:  cpu time    1.2707: real time    1.2707
    SETDIJ:  cpu time    2.1190: real time    2.1190
    TRIAL :  cpu time   63.7710: real time   63.7800
    CORREC:  cpu time    0.0011: real time    0.0013
    CHARGE:  cpu time    0.1717: real time    0.1717
    --------------------------------------------
      LOOP:  cpu time   67.3358: real time   67.3450

 eigenvalue-minimisations  :     0
 total energy-change (2. order) :-0.5445380E+01  (-0.4066265E+01)
 number of electron     248.0000007 magnetization       2.0383247
 augmentation part       17.7953213 magnetization       1.9942821

 DIPCOR: dipole corrections for dipol
 direction  3 min pos     1,
 dipolmoment           0.000016     -0.000005      0.030837 electrons x Angstroem
 Tr[quadrupol]     -6743.865541

 energy correction for charged system         0.000000 eV
 dipol+quadrupol energy correction            0.000027 eV
 added-field ion interaction          0.000000 eV  (added to PSCEN)


 Free energy of the ion-electron system (eV)
  ---------------------------------------------------
  alpha Z        PSCENC =       107.13372778
  Ewald energy   TEWEN  =     39101.26281052
  -Hartree energ DENC   =    -48506.09986303
  -exchange      EXHF   =       568.08340467
  -V(xc)+E(xc)   XCENC  =       655.24332465
  PAW double counting   =     27747.09714349   -27952.61376054
  entropy T*S    EENTRO =        -0.00660304
  eigenvalues    EBANDS =     -3253.55567360
  atomic energy  EATOM  =     10943.84007970
  ---------------------------------------------------
  free energy    TOTEN  =      -589.61895285 eV

  energy without entropy =     -589.61234982  energy(sigma->0) =     -589.61565133
  exchange ACFDT corr.  =        -0.01808956  see jH, gK, PRB 81, 115126


--------------------------------------------------------------------------------------------------------




--------------------------------------- Iteration      1(   5)  ---------------------------------------


    POTLOK:  cpu time    1.2685: real time    1.2686
    SETDIJ:  cpu time    2.0891: real time    2.0891
    TRIAL :  cpu time   63.9047: real time   63.9058
    CORREC:  cpu time    0.0011: real time    0.0013
    CHARGE:  cpu time    0.1706: real time    0.1706
    --------------------------------------------
      LOOP:  cpu time   67.4364: real time   67.4378

 eigenvalue-minimisations  :     0
 total energy-change (2. order) :-0.3325769E+01  (-0.2334703E+01)
 number of electron     248.0000007 magnetization       2.0210687
 augmentation part       17.8044083 magnetization       2.0152647

 DIPCOR: dipole corrections for dipol
 direction  3 min pos     1,
 dipolmoment           0.000023     -0.000006      0.043814 electrons x Angstroem
 Tr[quadrupol]     -6743.919901

 energy correction for charged system         0.000000 eV
 dipol+quadrupol energy correction            0.000055 eV
 added-field ion interaction          0.000000 eV  (added to PSCEN)


 Free energy of the ion-electron system (eV)
  ---------------------------------------------------
  alpha Z        PSCENC =       107.13375550
  Ewald energy   TEWEN  =     39101.26281052
  -Hartree energ DENC   =    -48505.56824251
  -exchange      EXHF   =       568.35256818
  -V(xc)+E(xc)   XCENC  =       655.28282941
  PAW double counting   =     27589.86088922   -27793.81618993
  entropy T*S    EENTRO =        -0.00394424
  eigenvalues    EBANDS =     -3259.28661880
  atomic energy  EATOM  =     10943.84007970
  ---------------------------------------------------
  free energy    TOTEN  =      -592.94472173 eV

  energy without entropy =     -592.94077749  energy(sigma->0) =     -592.94274961
  exchange ACFDT corr.  =        -0.00951957  see jH, gK, PRB 81, 115126


--------------------------------------------------------------------------------------------------------




--------------------------------------- Iteration      1(   6)  ---------------------------------------


    POTLOK:  cpu time    1.2703: real time    1.2703
    SETDIJ:  cpu time    2.0875: real time    2.0875
    TRIAL :  cpu time   63.8899: real time   63.8990
    CORREC:  cpu time    0.0010: real time    0.0013
    CHARGE:  cpu time    0.1708: real time    0.1708
    --------------------------------------------
      LOOP:  cpu time   67.4219: real time   67.4313

 eigenvalue-minimisations  :     0
 total energy-change (2. order) :-0.1932044E+01  (-0.1372455E+01)
 number of electron     248.0000007 magnetization       2.0112926
 augmentation part       17.8369970 magnetization       2.0310504

 DIPCOR: dipole corrections for dipol
 direction  3 min pos     1,
 dipolmoment           0.000024     -0.000007      0.046754 electrons x Angstroem
 Tr[quadrupol]     -6744.036456

 energy correction for charged system         0.000000 eV
 dipol+quadrupol energy correction            0.000063 eV
 added-field ion interaction          0.000000 eV  (added to PSCEN)


 Free energy of the ion-electron system (eV)
  ---------------------------------------------------
  alpha Z        PSCENC =       107.13376311
  Ewald energy   TEWEN  =     39101.26281052
  -Hartree energ DENC   =    -48513.40335092
  -exchange      EXHF   =       568.74052382
  -V(xc)+E(xc)   XCENC  =       655.51820710
  PAW double counting   =     27522.68505888   -27726.59043971
  entropy T*S    EENTRO =        -0.00227838
  eigenvalues    EBANDS =     -3254.05947433
  atomic energy  EATOM  =     10943.84007970
  ---------------------------------------------------
  free energy    TOTEN  =      -594.87676606 eV

  energy without entropy =     -594.87448767  energy(sigma->0) =     -594.87562686
  exchange ACFDT corr.  =        -0.00480522  see jH, gK, PRB 81, 115126


--------------------------------------------------------------------------------------------------------




--------------------------------------- Iteration      1(   7)  ---------------------------------------


    POTLOK:  cpu time    1.2674: real time    1.2674
    SETDIJ:  cpu time    2.1171: real time    2.1171
    TRIAL :  cpu time   63.7797: real time   63.7846
    CORREC:  cpu time    0.0010: real time    0.0012
    CHARGE:  cpu time    0.1704: real time    0.1705
    --------------------------------------------
      LOOP:  cpu time   67.3382: real time   67.3433

 eigenvalue-minimisations  :     0
 total energy-change (2. order) :-0.1146120E+01  (-0.8273377E+00)
 number of electron     248.0000007 magnetization       2.0063822
 augmentation part       17.8527383 magnetization       2.0438562

 DIPCOR: dipole corrections for dipol
 direction  3 min pos     1,
 dipolmoment           0.000024     -0.000007      0.046015 electrons x Angstroem
 Tr[quadrupol]     -6744.125623

 energy correction for charged system         0.000000 eV
 dipol+quadrupol energy correction            0.000061 eV
 added-field ion interaction          0.000000 eV  (added to PSCEN)


 Free energy of the ion-electron system (eV)
  ---------------------------------------------------
  alpha Z        PSCENC =       107.13376115
  Ewald energy   TEWEN  =     39101.26281052
  -Hartree energ DENC   =    -48521.48932651
  -exchange      EXHF   =       569.07443238
  -V(xc)+E(xc)   XCENC  =       655.76025174
  PAW double counting   =     27506.63601702   -27711.26901803
  entropy T*S    EENTRO =        -0.00136788
  eigenvalues    EBANDS =     -3246.96961516
  atomic energy  EATOM  =     10943.84007970
  ---------------------------------------------------
  free energy    TOTEN  =      -596.02288557 eV

  energy without entropy =     -596.02151769  energy(sigma->0) =     -596.02220163
  exchange ACFDT corr.  =        -0.00245498  see jH, gK, PRB 81, 115126


--------------------------------------------------------------------------------------------------------




--------------------------------------- Iteration      1(   8)  ---------------------------------------


    POTLOK:  cpu time    1.2652: real time    1.2655
    SETDIJ:  cpu time    2.1200: real time    2.1202
    TRIAL :  cpu time   63.8210: real time   63.8411
    CORREC:  cpu time    0.0010: real time    0.0012
    CHARGE:  cpu time    0.1706: real time    0.1706
    --------------------------------------------
      LOOP:  cpu time   67.3802: real time   67.4010

 eigenvalue-minimisations  :     0
 total energy-change (2. order) :-0.7000417E+00  (-0.5173689E+00)
 number of electron     248.0000007 magnetization       2.0036631
 augmentation part       17.8515673 magnetization       2.0543764

 DIPCOR: dipole corrections for dipol
 direction  3 min pos     1,
 dipolmoment           0.000025     -0.000007      0.048157 electrons x Angstroem
 Tr[quadrupol]     -6744.154793

 energy correction for charged system         0.000000 eV
 dipol+quadrupol energy correction            0.000066 eV
 added-field ion interaction          0.000000 eV  (added to PSCEN)


 Free energy of the ion-electron system (eV)
  ---------------------------------------------------
  alpha Z        PSCENC =       107.13376692
  Ewald energy   TEWEN  =     39101.26281052
  -Hartree energ DENC   =    -48524.66229624
  -exchange      EXHF   =       569.26998397
  -V(xc)+E(xc)   XCENC  =       655.88984232
  PAW double counting   =     27509.92414320   -27714.90182757
  entropy T*S    EENTRO =        -0.00082775
  eigenvalues    EBANDS =     -3244.47806220
  atomic energy  EATOM  =     10943.84007970
  ---------------------------------------------------
  free energy    TOTEN  =      -596.72292725 eV

  energy without entropy =     -596.72209950  energy(sigma->0) =     -596.72251338
  exchange ACFDT corr.  =        -0.00134997  see jH, gK, PRB 81, 115126


--------------------------------------------------------------------------------------------------------




--------------------------------------- Iteration      1(   9)  ---------------------------------------


    POTLOK:  cpu time    1.2653: real time    1.2657
    SETDIJ:  cpu time    2.0876: real time    2.0878
    TRIAL :  cpu time   64.0193: real time   64.0508
    CORREC:  cpu time    0.0010: real time    0.0012
    CHARGE:  cpu time    0.1709: real time    0.1709
    --------------------------------------------
      LOOP:  cpu time   67.5463: real time   67.5785

 eigenvalue-minimisations  :     0
 total energy-change (2. order) :-0.4399325E+00  (-0.3228573E+00)
 number of electron     248.0000007 magnetization       2.0020385
 augmentation part       17.8524516 magnetization       2.0653554

 DIPCOR: dipole corrections for dipol
 direction  3 min pos     1,
 dipolmoment           0.000027     -0.000008      0.051511 electrons x Angstroem
 Tr[quadrupol]     -6744.144526

 energy correction for charged system         0.000000 eV
 dipol+quadrupol energy correction            0.000076 eV
 added-field ion interaction          0.000000 eV  (added to PSCEN)


 Free energy of the ion-electron system (eV)
  ---------------------------------------------------
  alpha Z        PSCENC =       107.13377649
  Ewald energy   TEWEN  =     39101.26281052
  -Hartree energ DENC   =    -48523.86421740
  -exchange      EXHF   =       569.35028342
  -V(xc)+E(xc)   XCENC  =       655.91730705
  PAW double counting   =     27518.94899535   -27723.74284805
  entropy T*S    EENTRO =        -0.00048460
  eigenvalues    EBANDS =     -3246.00821908
  atomic energy  EATOM  =     10943.84007970
  ---------------------------------------------------
  free energy    TOTEN  =      -597.16285975 eV

  energy without entropy =     -597.16237515  energy(sigma->0) =     -597.16261745
  exchange ACFDT corr.  =        -0.00076248  see jH, gK, PRB 81, 115126


--------------------------------------------------------------------------------------------------------




--------------------------------------- Iteration      1(  10)  ---------------------------------------


    POTLOK:  cpu time    1.2644: real time    1.2648
    SETDIJ:  cpu time    2.0829: real time    2.0833
    TRIAL :  cpu time   63.8645: real time   63.8852
    CORREC:  cpu time    0.0010: real time    0.0012
    CHARGE:  cpu time    0.1713: real time    0.1714
    --------------------------------------------
      LOOP:  cpu time   67.3867: real time   67.4082

 eigenvalue-minimisations  :     0
 total energy-change (2. order) :-0.2758434E+00  (-0.2005867E+00)
 number of electron     248.0000007 magnetization       2.0011122
 augmentation part       17.8592916 magnetization       2.0763537

 DIPCOR: dipole corrections for dipol
 direction  3 min pos     1,
 dipolmoment           0.000028     -0.000008      0.053057 electrons x Angstroem
 Tr[quadrupol]     -6744.130980

 energy correction for charged system         0.000000 eV
 dipol+quadrupol energy correction            0.000081 eV
 added-field ion interaction          0.000000 eV  (added to PSCEN)


 Free energy of the ion-electron system (eV)
  ---------------------------------------------------
  alpha Z        PSCENC =       107.13378111
  Ewald energy   TEWEN  =     39101.26281052
  -Hartree energ DENC   =    -48522.64199006
  -exchange      EXHF   =       569.38939664
  -V(xc)+E(xc)   XCENC  =       655.91958864
  PAW double counting   =     27530.65182464   -27735.27891528
  entropy T*S    EENTRO =        -0.00027731
  eigenvalues    EBANDS =     -3247.71479447
  atomic energy  EATOM  =     10943.84007970
  ---------------------------------------------------
  free energy    TOTEN  =      -597.43870315 eV

  energy without entropy =     -597.43842584  energy(sigma->0) =     -597.43856449
  exchange ACFDT corr.  =        -0.00042052  see jH, gK, PRB 81, 115126


--------------------------------------------------------------------------------------------------------




--------------------------------------- Iteration      1(  11)  ---------------------------------------


    POTLOK:  cpu time    1.2642: real time    1.2645
    SETDIJ:  cpu time    2.1142: real time    2.1144
    TRIAL :  cpu time   63.7411: real time   63.7622
    CORREC:  cpu time    0.0010: real time    0.0012
    CHARGE:  cpu time    0.1712: real time    0.1713
    --------------------------------------------
      LOOP:  cpu time   67.2939: real time   67.3158

 eigenvalue-minimisations  :     0
 total energy-change (2. order) :-0.1724529E+00  (-0.1249334E+00)
 number of electron     248.0000007 magnetization       2.0006125
 augmentation part       17.8646676 magnetization       2.0857311

 DIPCOR: dipole corrections for dipol
 direction  3 min pos     1,
 dipolmoment           0.000028     -0.000008      0.053168 electrons x Angstroem
 Tr[quadrupol]     -6744.129937

 energy correction for charged system         0.000000 eV
 dipol+quadrupol energy correction            0.000081 eV
 added-field ion interaction          0.000000 eV  (added to PSCEN)


 Free energy of the ion-electron system (eV)
  ---------------------------------------------------
  alpha Z        PSCENC =       107.13378145
  Ewald energy   TEWEN  =     39101.26281052
  -Hartree energ DENC   =    -48522.59583140
  -exchange      EXHF   =       569.43163549
  -V(xc)+E(xc)   XCENC  =       655.93844721
  PAW double counting   =     27542.87104731   -27747.59790598
  entropy T*S    EENTRO =        -0.00015945
  eigenvalues    EBANDS =     -3247.89494308
  atomic energy  EATOM  =     10943.84007970
  ---------------------------------------------------
  free energy    TOTEN  =      -597.61115608 eV

  energy without entropy =     -597.61099663  energy(sigma->0) =     -597.61107635
  exchange ACFDT corr.  =        -0.00022818  see jH, gK, PRB 81, 115126


--------------------------------------------------------------------------------------------------------




--------------------------------------- Iteration      1(  12)  ---------------------------------------


    POTLOK:  cpu time    1.2642: real time    1.2650
    SETDIJ:  cpu time    2.1180: real time    2.1183
    TRIAL :  cpu time   63.7786: real time   63.8002
    CORREC:  cpu time    0.0010: real time    0.0010
    CHARGE:  cpu time    0.1711: real time    0.1713
    --------------------------------------------
      LOOP:  cpu time   67.3357: real time   67.3586

 eigenvalue-minimisations  :     0
 total energy-change (2. order) :-0.1083315E+00  (-0.7948506E-01)
 number of electron     248.0000007 magnetization       2.0003450
 augmentation part       17.8657236 magnetization       2.0930500

 DIPCOR: dipole corrections for dipol
 direction  3 min pos     1,
 dipolmoment           0.000028     -0.000008      0.053389 electrons x Angstroem
 Tr[quadrupol]     -6744.136360

 energy correction for charged system         0.000000 eV
 dipol+quadrupol energy correction            0.000082 eV
 added-field ion interaction          0.000000 eV  (added to PSCEN)


 Free energy of the ion-electron system (eV)
  ---------------------------------------------------
  alpha Z        PSCENC =       107.13378212
  Ewald energy   TEWEN  =     39101.26281052
  -Hartree energ DENC   =    -48523.06426712
  -exchange      EXHF   =       569.47616027
  -V(xc)+E(xc)   XCENC  =       655.96410795
  PAW double counting   =     27553.10501609   -27757.98121530
  entropy T*S    EENTRO =        -0.00009333
  eigenvalues    EBANDS =     -3247.45580236
  atomic energy  EATOM  =     10943.84007970
  ---------------------------------------------------
  free energy    TOTEN  =      -597.71948757 eV

  energy without entropy =     -597.71939424  energy(sigma->0) =     -597.71944091
  exchange ACFDT corr.  =        -0.00012517  see jH, gK, PRB 81, 115126


--------------------------------------------------------------------------------------------------------




--------------------------------------- Iteration      1(  13)  ---------------------------------------


    POTLOK:  cpu time    1.2642: real time    1.2645
    SETDIJ:  cpu time    2.1127: real time    2.1129
    TRIAL :  cpu time   63.9121: real time   63.9460
    CORREC:  cpu time    0.0010: real time    0.0012
    CHARGE:  cpu time    0.1717: real time    0.1717
    --------------------------------------------
      LOOP:  cpu time   67.4638: real time   67.4986

 eigenvalue-minimisations  :     0
 total energy-change (2. order) :-0.6951435E-01  (-0.5158550E-01)
 number of electron     248.0000007 magnetization       2.0001992
 augmentation part       17.8656148 magnetization       2.0993795

 DIPCOR: dipole corrections for dipol
 direction  3 min pos     1,
 dipolmoment           0.000028     -0.000008      0.054010 electrons x Angstroem
 Tr[quadrupol]     -6744.142584

 energy correction for charged system         0.000000 eV
 dipol+quadrupol energy correction            0.000083 eV
 added-field ion interaction          0.000000 eV  (added to PSCEN)


 Free energy of the ion-electron system (eV)
  ---------------------------------------------------
  alpha Z        PSCENC =       107.13378403
  Ewald energy   TEWEN  =     39101.26281052
  -Hartree energ DENC   =    -48523.32779242
  -exchange      EXHF   =       569.51295312
  -V(xc)+E(xc)   XCENC  =       655.98202059
  PAW double counting   =     27560.34042348   -27765.25228376
  entropy T*S    EENTRO =        -0.00005578
  eigenvalues    EBANDS =     -3247.28090387
  atomic energy  EATOM  =     10943.84007970
  ---------------------------------------------------
  free energy    TOTEN  =      -597.78900192 eV

  energy without entropy =     -597.78894614  energy(sigma->0) =     -597.78897403
  exchange ACFDT corr.  =        -0.00007027  see jH, gK, PRB 81, 115126


--------------------------------------------------------------------------------------------------------




--------------------------------------- Iteration      1(  14)  ---------------------------------------


    POTLOK:  cpu time    1.2611: real time    1.2614
    SETDIJ:  cpu time    2.1224: real time    2.1226
    TRIAL :  cpu time   63.7842: real time   63.7874
    CORREC:  cpu time    0.0009: real time    0.0011
    CHARGE:  cpu time    0.1714: real time    0.1715
    --------------------------------------------
      LOOP:  cpu time   67.3421: real time   67.3461

 eigenvalue-minimisations  :     0
 total energy-change (2. order) :-0.4549744E-01  (-0.3408914E-01)
 number of electron     248.0000007 magnetization       2.0001188
 augmentation part       17.8665025 magnetization       2.1053545

 DIPCOR: dipole corrections for dipol
 direction  3 min pos     1,
 dipolmoment           0.000028     -0.000008      0.054484 electrons x Angstroem
 Tr[quadrupol]     -6744.146177

 energy correction for charged system         0.000000 eV
 dipol+quadrupol energy correction            0.000085 eV
 added-field ion interaction          0.000000 eV  (added to PSCEN)


 Free energy of the ion-electron system (eV)
  ---------------------------------------------------
  alpha Z        PSCENC =       107.13378550
  Ewald energy   TEWEN  =     39101.26281052
  -Hartree energ DENC   =    -48523.37624107
  -exchange      EXHF   =       569.54209687
  -V(xc)+E(xc)   XCENC  =       655.99291540
  PAW double counting   =     27565.08003331   -27769.95705355
  entropy T*S    EENTRO =        -0.00003429
  eigenvalues    EBANDS =     -3247.35287026
  atomic energy  EATOM  =     10943.84007970
  ---------------------------------------------------
  free energy    TOTEN  =      -597.83449936 eV

  energy without entropy =     -597.83446506  energy(sigma->0) =     -597.83448221
  exchange ACFDT corr.  =        -0.00004048  see jH, gK, PRB 81, 115126


--------------------------------------------------------------------------------------------------------




--------------------------------------- Iteration      1(  15)  ---------------------------------------


    POTLOK:  cpu time    1.2633: real time    1.2633
    SETDIJ:  cpu time    2.1161: real time    2.1160
    TRIAL :  cpu time   63.7027: real time   63.7037
    CORREC:  cpu time    0.0009: real time    0.0011
    CHARGE:  cpu time    0.1711: real time    0.1711
    --------------------------------------------
      LOOP:  cpu time   67.2564: real time   67.2576

 eigenvalue-minimisations  :     0
 total energy-change (2. order) :-0.3035146E-01  (-0.2298212E-01)
 number of electron     248.0000007 magnetization       2.0000738
 augmentation part       17.8674857 magnetization       2.1106887

 DIPCOR: dipole corrections for dipol
 direction  3 min pos     1,
 dipolmoment           0.000028     -0.000008      0.054562 electrons x Angstroem
 Tr[quadrupol]     -6744.147965

 energy correction for charged system         0.000000 eV
 dipol+quadrupol energy correction            0.000085 eV
 added-field ion interaction          0.000000 eV  (added to PSCEN)


 Free energy of the ion-electron system (eV)
  ---------------------------------------------------
  alpha Z        PSCENC =       107.13378575
  Ewald energy   TEWEN  =     39101.26281052
  -Hartree energ DENC   =    -48523.44436549
  -exchange      EXHF   =       569.56882020
  -V(xc)+E(xc)   XCENC  =       656.00370749
  PAW double counting   =     27567.92909968   -27772.80297894
  entropy T*S    EENTRO =        -0.00002188
  eigenvalues    EBANDS =     -3247.35577543
  atomic energy  EATOM  =     10943.84007970
  ---------------------------------------------------
  free energy    TOTEN  =      -597.86485081 eV

  energy without entropy =     -597.86482894  energy(sigma->0) =     -597.86483987
  exchange ACFDT corr.  =        -0.00002409  see jH, gK, PRB 81, 115126


--------------------------------------------------------------------------------------------------------




--------------------------------------- Iteration      1(  16)  ---------------------------------------


    POTLOK:  cpu time    1.2612: real time    1.2612
    SETDIJ:  cpu time    2.0871: real time    2.0870
    TRIAL :  cpu time   63.9004: real time   63.9019
    CORREC:  cpu time    0.0009: real time    0.0012
    CHARGE:  cpu time    0.1709: real time    0.1709
    --------------------------------------------
      LOOP:  cpu time   67.4227: real time   67.4244

 eigenvalue-minimisations  :     0
 total energy-change (2. order) :-0.2066886E-01  (-0.1589875E-01)
 number of electron     248.0000007 magnetization       2.0000479
 augmentation part       17.8677475 magnetization       2.1152853

 DIPCOR: dipole corrections for dipol
 direction  3 min pos     1,
 dipolmoment           0.000028     -0.000008      0.054481 electrons x Angstroem
 Tr[quadrupol]     -6744.148849

 energy correction for charged system         0.000000 eV
 dipol+quadrupol energy correction            0.000085 eV
 added-field ion interaction          0.000000 eV  (added to PSCEN)


 Free energy of the ion-electron system (eV)
  ---------------------------------------------------
  alpha Z        PSCENC =       107.13378549
  Ewald energy   TEWEN  =     39101.26281052
  -Hartree energ DENC   =    -48523.55398764
  -exchange      EXHF   =       569.59449443
  -V(xc)+E(xc)   XCENC  =       656.01564884
  PAW double counting   =     27569.29288217   -27774.19958137
  entropy T*S    EENTRO =        -0.00001454
  eigenvalues    EBANDS =     -3247.27162994
  atomic energy  EATOM  =     10943.84007970
  ---------------------------------------------------
  free energy    TOTEN  =      -597.88551967 eV

  energy without entropy =     -597.88550514  energy(sigma->0) =     -597.88551240
  exchange ACFDT corr.  =        -0.00001494  see jH, gK, PRB 81, 115126


--------------------------------------------------------------------------------------------------------




--------------------------------------- Iteration      1(  17)  ---------------------------------------


    POTLOK:  cpu time    1.2552: real time    1.2552
    SETDIJ:  cpu time    2.0874: real time    2.0874
    TRIAL :  cpu time   63.7423: real time   63.7433
    CORREC:  cpu time    0.0009: real time    0.0011
    CHARGE:  cpu time    0.1711: real time    0.1711
    --------------------------------------------
      LOOP:  cpu time   67.2593: real time   67.2605

 eigenvalue-minimisations  :     0
 total energy-change (2. order) :-0.1441532E-01  (-0.1121886E-01)
 number of electron     248.0000007 magnetization       2.0000325
 augmentation part       17.8677290 magnetization       2.1194615

 DIPCOR: dipole corrections for dipol
 direction  3 min pos     1,
 dipolmoment           0.000028     -0.000008      0.054439 electrons x Angstroem
 Tr[quadrupol]     -6744.149222

 energy correction for charged system         0.000000 eV
 dipol+quadrupol energy correction            0.000085 eV
 added-field ion interaction          0.000000 eV  (added to PSCEN)


 Free energy of the ion-electron system (eV)
  ---------------------------------------------------
  alpha Z        PSCENC =       107.13378536
  Ewald energy   TEWEN  =     39101.26281052
  -Hartree energ DENC   =    -48523.62183652
  -exchange      EXHF   =       569.61745578
  -V(xc)+E(xc)   XCENC  =       656.02641980
  PAW double counting   =     27569.64522847   -27774.57628589
  entropy T*S    EENTRO =        -0.00001005
  eigenvalues    EBANDS =     -3247.22757769
  atomic energy  EATOM  =     10943.84007970
  ---------------------------------------------------
  free energy    TOTEN  =      -597.89993500 eV

  energy without entropy =     -597.89992495  energy(sigma->0) =     -597.89992997
  exchange ACFDT corr.  =        -0.00000968  see jH, gK, PRB 81, 115126


--------------------------------------------------------------------------------------------------------




--------------------------------------- Iteration      1(  18)  ---------------------------------------


    POTLOK:  cpu time    1.2549: real time    1.2549
    SETDIJ:  cpu time    2.0824: real time    2.0827
    TRIAL :  cpu time   63.6307: real time   63.6617
    CORREC:  cpu time    0.0009: real time    0.0012
    CHARGE:  cpu time    0.1712: real time    0.1712
    --------------------------------------------
      LOOP:  cpu time   67.1423: real time   67.1739

 eigenvalue-minimisations  :     0
 total energy-change (2. order) :-0.1023653E-01  (-0.8035604E-02)
 number of electron     248.0000007 magnetization       2.0000230
 augmentation part       17.8678397 magnetization       2.1233544

 DIPCOR: dipole corrections for dipol
 direction  3 min pos     1,
 dipolmoment           0.000028     -0.000008      0.054448 electrons x Angstroem
 Tr[quadrupol]     -6744.149461

 energy correction for charged system         0.000000 eV
 dipol+quadrupol energy correction            0.000085 eV
 added-field ion interaction          0.000000 eV  (added to PSCEN)


 Free energy of the ion-electron system (eV)
  ---------------------------------------------------
  alpha Z        PSCENC =       107.13378539
  Ewald energy   TEWEN  =     39101.26281052
  -Hartree energ DENC   =    -48523.64736200
  -exchange      EXHF   =       569.63722016
  -V(xc)+E(xc)   XCENC  =       656.03555241
  PAW double counting   =     27569.54149549   -27774.47865910
  entropy T*S    EENTRO =        -0.00000722
  eigenvalues    EBANDS =     -3247.23508405
  atomic energy  EATOM  =     10943.84007970
  ---------------------------------------------------
  free energy    TOTEN  =      -597.91017153 eV

  energy without entropy =     -597.91016431  energy(sigma->0) =     -597.91016792
  exchange ACFDT corr.  =        -0.00000655  see jH, gK, PRB 81, 115126


[...]
  augment    47.33853    43.27110    47.09982     0.98453    -1.18695    -0.18209
  Kinetic  3617.02722  3601.01485  4070.09864    -5.85713     0.64753     5.05441
  Fock     -385.33557  -381.11484  -359.99374    -0.84489     1.49518     1.53579
  -------------------------------------------------------------------------------------
  Total     -46.85151   -38.19813    -0.76652    -0.07287     0.41294     1.11015
  in kB     -23.62815   -19.26408    -0.38657    -0.03675     0.20825     0.55987
  external pressure =      -14.43 kB  Pullay stress =        0.00 kB


 VOLUME and BASIS-vectors are now :
 -----------------------------------------------------------------------------
  energy-cutoff  :      500.00
  volume of cell :     3176.91
      direct lattice vectors                 reciprocal lattice vectors
    13.031671526 -0.017066341  0.007885836     0.076736422  0.000206864 -0.000039808
    -0.033222671 12.323725041 -0.001349314     0.000106260  0.081144584  0.000011821
     0.010269876 -0.002895138 19.781716302    -0.000030583  0.000005452  0.050551748

  length of vectors
    13.031685087 12.323769896 19.781719179     0.076736711  0.081144655  0.050551757


 FORCES acting on ions:
    Electron-Ion                     Ewald-Force                    Non-Local-Force
 -----------------------------------------------------------------------------------------------
   0.298E+01 0.507E+01 -.181E+01   -.221E+01 -.535E+01 0.183E+01   -.463E+00 0.219E+00 -.434E-01
   0.390E+01 0.104E+02 -.848E+01   -.425E+01 -.110E+02 0.852E+01   0.170E+00 0.386E+00 -.423E-01
   -.905E+01 0.527E+01 -.354E+01   0.911E+01 -.544E+01 0.343E+01   -.259E+00 0.204E+00 0.111E+00
   0.620E+01 0.190E+02 -.972E+00   -.578E+01 -.193E+02 0.951E+00   -.362E+00 0.162E+00 0.305E-01
   0.176E+02 0.610E+02 -.628E+01   -.189E+02 -.647E+02 0.643E+01   0.119E+01 0.385E+01 -.138E+00
   0.160E+02 0.137E+02 -.167E+02   -.165E+02 -.141E+02 0.169E+02   0.380E+00 0.136E+00 -.189E+00
   0.785E+01 0.188E+02 -.744E+01   -.791E+01 -.191E+02 0.731E+01   0.101E+00 0.520E+00 0.110E+00
   0.495E+02 -.286E+02 0.218E+02   -.518E+02 0.312E+02 -.222E+02   0.176E+01 -.335E+01 0.540E+00
   0.739E+01 -.518E+01 -.128E+02   -.781E+01 0.590E+01 0.127E+02   0.101E+00 -.464E+00 0.933E-01
   0.264E+02 -.554E+01 -.743E+01   -.267E+02 0.592E+01 0.761E+01   0.752E+00 -.408E+00 -.263E+00
   0.723E+02 -.181E+02 0.653E+02   -.728E+02 0.194E+02 -.655E+02   0.200E+01 -.727E+00 -.233E+00
   0.171E+02 -.237E+02 0.150E+02   -.167E+02 0.252E+02 -.150E+02   -.479E+00 -.885E+00 -.143E-02
   0.323E+01 -.156E+02 -.147E+02   -.306E+01 0.159E+02 0.147E+02   -.222E+00 -.274E+00 -.228E-01
   0.136E+02 -.880E+01 -.121E+02   -.134E+02 0.911E+01 0.122E+02   -.212E+00 -.296E+00 -.155E+00
   -.842E+01 -.137E+02 0.714E+01   0.897E+01 0.131E+02 -.705E+01   -.588E+00 0.371E+00 -.135E+00
   0.194E-01 -.329E+01 -.797E+01   0.940E-01 0.311E+01 0.803E+01   -.150E+00 0.232E+00 -.414E-01
   -.534E+01 -.828E+01 -.524E+01   0.602E+01 0.818E+01 0.528E+01   -.606E+00 0.494E-02 -.490E-01
   -.158E+01 0.356E+01 0.394E+01   0.185E+01 -.410E+01 -.405E+01   -.318E+00 0.684E+00 0.964E-01
   0.130E+01 0.133E+02 -.622E+01   -.124E+01 -.135E+02 0.604E+01   0.130E+00 0.198E+00 0.192E+00
   0.369E+02 0.461E+02 0.297E+01   -.387E+02 -.490E+02 -.282E+01   0.186E+01 0.278E+01 -.158E+00
   0.979E+01 0.178E+02 -.658E+01   -.106E+02 -.184E+02 0.667E+01   0.546E+00 0.606E+00 -.132E+00
   -.174E+02 0.145E+02 -.160E+02   0.179E+02 -.145E+02 0.161E+02   -.388E+00 -.671E-02 -.125E+00
   -.557E+02 0.110E+02 -.165E+02   0.592E+02 -.104E+02 0.171E+02   -.368E+01 -.656E+00 -.620E+00
   -.297E+02 0.122E+02 -.283E+02   0.293E+02 -.101E+02 0.283E+02   0.571E+00 -.180E+01 0.416E-01
   -.803E+01 0.109E+02 -.342E+02   0.903E+01 -.154E+02 0.341E+02   -.682E+00 0.439E+01 0.397E-01
   -.158E+02 -.381E+02 -.206E+02   0.172E+02 0.409E+02 0.208E+02   -.132E+01 -.296E+01 -.252E+00
   0.961E-01 -.843E+01 -.115E+02   -.157E+01 0.890E+01 0.117E+02   0.125E+01 -.475E+00 -.203E+00
   0.128E+02 0.866E+01 -.377E+01   -.127E+02 -.969E+01 0.366E+01   -.661E-02 0.980E+00 0.944E-01
   -.285E+01 0.353E+00 -.744E+01   0.287E+01 -.656E+00 0.742E+01   -.353E-01 0.435E+00 0.504E-01
   0.139E+01 0.204E+01 -.118E+02   -.136E+01 -.211E+01 0.118E+02   -.107E-01 0.986E-02 -.292E-01
   -.372E+01 0.465E+01 -.152E+02   0.381E+01 -.466E+01 0.153E+02   -.136E+00 -.134E+00 -.529E-01
   -.826E+01 0.319E+01 -.127E+02   0.815E+01 -.304E+01 0.127E+02   0.779E-01 -.767E-01 -.312E-01
   -.529E+01 0.339E+01 -.116E+02   0.536E+01 -.346E+01 0.115E+02   0.569E-01 0.438E-01 0.303E-01
   0.118E+00 0.806E+01 -.163E+02   -.521E+00 -.823E+01 0.162E+02   0.220E+00 0.179E+00 0.145E-01
   -.965E+01 0.553E+01 -.186E+02   0.888E+01 -.579E+01 0.187E+02   0.660E+00 0.115E+00 -.240E-01
   -.607E+01 0.318E+01 -.151E+02   0.599E+01 -.296E+01 0.151E+02   0.246E+00 -.723E-01 -.550E-02
   0.331E+01 0.245E+01 -.205E+02   -.374E+01 -.249E+01 0.205E+02   0.482E+00 0.793E-01 -.394E-01
   0.160E+01 0.197E+01 -.240E+02   -.202E+01 -.213E+01 0.239E+02   0.244E+00 0.280E-01 0.223E-01
   -.892E+01 0.199E+01 -.271E+02   0.821E+01 -.226E+01 0.270E+02   0.488E+00 0.316E+00 0.411E-01
   -.527E+01 -.144E+01 -.259E+02   0.503E+01 0.117E+01 0.259E+02   0.403E+00 0.282E+00 -.828E-01
   0.843E+01 -.171E+01 -.243E+02   -.821E+01 0.176E+01 0.243E+02   0.191E+00 -.641E-01 -.732E-01
   -.172E+01 -.530E+01 -.240E+02   0.162E+01 0.552E+01 0.239E+02   -.120E+00 -.941E-01 0.917E-02
   -.860E+01 -.116E+02 -.211E+02   0.883E+01 0.119E+02 0.212E+02   -.331E+00 -.243E+00 -.390E-01
   -.682E+01 -.156E+01 -.246E+02   0.717E+01 0.126E+01 0.245E+02   -.106E+00 0.244E+00 0.177E-01
   0.153E+00 -.402E+01 -.189E+02   -.290E-01 0.409E+01 0.189E+02   -.479E-01 -.663E-01 -.297E-02
   -.754E+00 -.730E+01 -.151E+02   0.603E+00 0.738E+01 0.151E+02   -.936E-02 -.148E+00 -.124E-01
   0.617E+00 -.148E+01 -.109E+02   -.751E+00 0.166E+01 0.109E+02   0.118E+00 -.120E+00 0.283E-01
   -.412E+01 -.280E+01 -.152E+02   0.434E+01 0.310E+01 0.152E+02   -.399E-01 -.364E+00 -.493E-02
   -.728E+01 0.436E+00 -.106E+02   0.744E+01 -.350E+00 0.106E+02   -.151E+00 0.268E-01 0.905E-02
   -.253E+02 -.448E+02 0.425E+02   0.306E+02 0.449E+02 -.443E+02   -.597E+01 -.214E-01 0.180E+01
   -.192E+02 -.339E+02 -.750E+02   0.103E+02 0.340E+02 0.757E+02   0.879E+01 -.185E+00 -.863E+00
   0.330E+02 0.417E+01 -.162E+02   -.365E+02 -.922E+01 0.164E+02   0.377E+01 0.539E+01 -.203E+00
   0.911E+01 0.563E+02 -.196E+01   0.137E+02 -.560E+02 0.181E+01   -.217E+02 -.190E+00 0.187E-01
   0.257E+02 0.280E+02 0.201E+02   -.374E+02 -.741E+01 -.223E+02   0.110E+02 -.193E+02 0.222E+01
   -.694E+02 -.496E+02 0.307E+03   0.904E+02 0.481E+02 -.319E+03   -.208E+02 0.710E+00 0.112E+02
   0.479E+02 0.139E+02 -.355E+02   -.687E+02 -.158E+02 0.354E+02   0.198E+02 0.187E+01 0.129E+00
   -.520E+02 0.430E+01 0.874E+02   0.593E+02 -.286E+00 -.854E+02   -.690E+01 -.391E+01 -.188E+01
   -.342E+02 -.581E+02 0.165E+03   0.306E+02 0.594E+02 -.163E+03   0.421E+01 -.170E+01 -.121E+01
 -----------------------------------------------------------------------------------------------
   0.555E+01 0.145E+02 -.107E+02   -.178E-13 0.369E-12 -.171E-12   -.447E+01 -.135E+02 0.960E+01
 
 
 POSITION                                       TOTAL-FORCE (eV/Angst)
 -----------------------------------------------------------------------------------
      2.95599      0.02476      9.86629         0.283631     -0.055935     -0.022810
      0.74181      1.22878      9.93122        -0.165748     -0.199441     -0.005858
      1.49151      0.00987      9.90286        -0.226666      0.050901      0.012974
      3.68056      1.29494      9.85374         0.036495     -0.176616      0.011994
      2.88806      2.52700      9.84977        -0.019786      0.365972      0.004475
      0.66711      3.68182      9.93517        -0.087582     -0.178832      0.003011
      1.43764      2.47318      9.90371         0.043650      0.243269     -0.014095
      2.72792      4.90273      9.70636        -0.411208     -1.015448      0.228241
      0.62576      6.16334      9.90908        -0.321905      0.227102     -0.030784
      1.33087      4.92759      9.86040         0.496962     -0.057298     -0.093713
      3.41700      6.16065      9.47358         1.640693      0.570486     -0.420626
      2.71960      7.40356      9.68032        -0.095359      0.550233      0.014997
      0.66243      8.64829      9.91783        -0.063047     -0.019129     -0.011796
      1.33014      7.40372      9.85669         0.021064      0.002876     -0.034540
      2.87455      9.83760      9.78760        -0.069268     -0.174178     -0.045513
      0.72307     11.10290      9.92037        -0.037126      0.053232      0.011937
      1.42983      9.86012      9.87824         0.043848     -0.091911     -0.005589
      3.62045     11.08263      9.82865        -0.062776      0.187204     -0.006075
      7.23857     12.28050      9.92430         0.204258     -0.039052      0.013003
      5.15293      1.24999      9.84683         0.216414      0.048562     -0.017925
      5.79819     12.29180      9.88564        -0.194220      0.059483     -0.044495
      8.00477      1.18231      9.96436         0.061005     -0.021559     -0.022269
      7.27110      2.39535      9.93194        -0.413566     -0.091905     -0.076889
      7.98816      3.68907      9.99980         0.224333      0.208007      0.099691
      7.96166      6.15681     10.00653         0.292919      0.053769      0.008509
      7.99717      8.56922      9.95849        -0.033104     -0.280730     -0.020258
      7.24811      9.82422      9.91388        -0.166028     -0.028544     -0.022655
      5.07855     11.04140      9.85461         0.054052      0.000477     -0.008020
      7.97290     11.05372      9.93906        -0.025325      0.152867      0.036015
     11.57799     12.30256      9.98373         0.024489     -0.063983     -0.007965
      9.43976      1.19492      9.99456        -0.046642     -0.154163     -0.003118
     10.13479     12.29773      9.98947        -0.030692      0.073206     -0.001243
     12.32866      1.20857      9.97894         0.122143     -0.029139      0.000863
     11.57887      2.42863     10.00359        -0.170033      0.025195     -0.024501
      9.42174      3.66032     10.01735        -0.085896     -0.129045      0.054560
     10.14875      2.42968     10.00757         0.170267      0.149307     -0.024092
     12.27083      3.66727     10.00268         0.083293      0.038997     -0.010308
     11.54783      4.90071     10.02739        -0.164384     -0.124935     -0.023605
      9.40363      6.14427     10.03690        -0.200079      0.061677     -0.040159
     10.11820      4.90164     10.04164         0.187359      0.016423     -0.021918
     12.25098      6.14143     10.00547         0.429234     -0.016633     -0.051090
     11.55222      7.38380     10.02152        -0.235062      0.119644     -0.013788
      9.42056      8.60581     10.00680        -0.123570      0.045188     -0.001897
     10.13051      7.37362     10.03217         0.242914     -0.046506     -0.044908
     12.26891      8.62251      9.98984         0.073571      0.005860     -0.005303
     11.56479      9.85509      9.99214        -0.158094     -0.085846     -0.013346
      9.40874     11.07075      9.97726        -0.004127      0.050688      0.011585
     10.13278      9.84712      9.99703         0.177380     -0.074351      0.005413
     12.30853     11.08062      9.97027        -0.006721      0.118173     -0.003078
      3.52427      8.56820      9.62771        -1.021599      0.095711      0.133369
      7.27317      4.90621     10.04201         0.335091     -0.110657     -0.177054
      5.82023      9.81374      9.85125         0.476374      0.617538     -0.025832
      3.47042      3.77172      9.77557        -0.853660      0.129275     -0.125856
      5.91458      2.39454      9.81586         0.340098     -0.418595      0.169568
      4.67683      6.23076      9.08835        -1.633495     -0.833936      0.411504
      7.29461      7.39307      9.93431         0.732651      0.103531     -0.024175
      5.40444      4.43178      9.67808         0.124006     -0.030185     -0.028310
      5.36556      7.97277      9.48357        -0.011425      0.123703      0.343748
 -----------------------------------------------------------------------------------
    total drift:                               -0.001299      0.002901     -0.000349


--------------------------------------------------------------------------------------------------------



  FREE ENERGIE OF THE ION-ELECTRON SYSTEM (eV)
  ---------------------------------------------------
  free  energy   TOTEN  =      -597.94118117 eV

  energy  without entropy=     -597.94118056  energy(sigma->0) =     -597.94118087
 


--------------------------------------------------------------------------------------------------------


    POTLOK:  cpu time    3.3301: real time    3.3304


--------------------------------------------------------------------------------------------------------


 stress matrix after NEB project (eV)
    -46.85151     -0.07289      1.11015
     -0.07287    -38.19813      0.41449
      1.10719      0.41294     -0.76652
  FORCES: max atom, RMS     1.879652    0.496066
  FORCE total and by dimension    3.777924    1.640693
  Stress total and by dimension   60.477764   46.851508
 writing wavefunctions
     LOOP+:  cpu time 3465.5310: real time 3470.7830
    4ORBIT:  cpu time    0.0000: real time    0.0000
 


 total charge     
 
# of ion       s       p       d       tot
------------------------------------------
    1        0.852   1.704   0.000   2.557
    2        0.862   1.759   0.000   2.621
    3        0.860   1.736   0.000   2.596
    4        0.841   1.718   0.000   2.559
    5        0.850   1.696   0.000   2.546
    6        0.870   1.769   0.000   2.638
    7        0.863   1.754   0.000   2.618
    8        0.873   1.766   0.000   2.639
    9        0.869   1.788   0.000   2.657
   10        0.874   1.806   0.000   2.680
   11        0.884   1.749   0.000   2.633
   12        0.882   1.790   0.000   2.672
   13        0.868   1.776   0.000   2.644
   14        0.874   1.802   0.000   2.676
   15        0.857   1.729   0.000   2.587
   16        0.862   1.751   0.000   2.613
   17        0.862   1.750   0.000   2.612
   18        0.855   1.724   0.000   2.579
   19        0.867   1.749   0.000   2.617
   20        0.849   1.690   0.000   2.540
   21        0.861   1.739   0.000   2.600
   22        0.866   1.782   0.000   2.648
   23        0.864   1.722   0.000   2.585
   24        0.863   1.739   0.000   2.603
   25        0.853   1.695   0.000   2.548
   26        0.864   1.721   0.000   2.585
   27        0.865   1.746   0.000   2.611
   28        0.858   1.722   0.000   2.580
   29        0.865   1.765   0.000   2.630
   30        0.866   1.763   0.000   2.629
   31        0.865   1.777   0.000   2.642
   32        0.865   1.764   0.000   2.629
   33        0.862   1.763   0.000   2.625
   34        0.867   1.769   0.000   2.637
   35        0.867   1.768   0.000   2.635
   36        0.866   1.771   0.000   2.636
   37        0.867   1.777   0.000   2.644
   38        0.866   1.768   0.000   2.635
   39        0.865   1.760   0.000   2.625
   40        0.866   1.767   0.000   2.633
   41        0.872   1.781   0.000   2.652
   42        0.865   1.781   0.000   2.646
   43        0.868   1.780   0.000   2.648
   44        0.870   1.771   0.000   2.642
   45        0.869   1.769   0.000   2.638
   46        0.866   1.771   0.000   2.636
   47        0.866   1.772   0.000   2.638
   48        0.865   1.769   0.000   2.634
   49        0.863   1.758   0.000   2.620
   50        0.872   1.646   0.000   2.518
   51        0.864   1.683   0.000   2.547
   52        0.867   1.665   0.000   2.532
   53        1.239   2.665   0.000   3.904
   54        1.237   2.668   0.000   3.905
   55        1.268   2.557   0.000   3.825
   56        1.231   2.646   0.000   3.877
   57        0.534   0.507   9.875  10.916
   58        0.493   0.633   6.061   7.187
--------------------------------------------------
tot         50.963 102.710  15.936 169.608
 


 magnetization (x)
 
# of ion       s       p       d       tot
------------------------------------------
    1        0.002   0.015   0.000   0.016
    2        0.000   0.000   0.000   0.000
    3       -0.000  -0.000   0.000  -0.000
    4       -0.003  -0.044   0.000  -0.046
    5        0.001   0.000   0.000   0.001
    6        0.000   0.002   0.000   0.003
    7       -0.000  -0.006   0.000  -0.007
    8        0.000   0.001   0.000   0.002
    9        0.000   0.001   0.000   0.001
   10       -0.001  -0.011   0.000  -0.011
   11        0.002   0.005   0.000   0.007
   12        0.000   0.008   0.000   0.008
   13        0.000   0.004   0.000   0.004
   14       -0.001  -0.010   0.000  -0.011
   15        0.000  -0.003   0.000  -0.002
   16       -0.000  -0.007   0.000  -0.007
   17       -0.002  -0.017   0.000  -0.018
   18       -0.002  -0.033   0.000  -0.035
   19        0.001   0.012   0.000   0.013
   20        0.001   0.005   0.000   0.006
   21       -0.001  -0.003   0.000  -0.004
   22        0.001   0.002   0.000   0.003
   23       -0.003  -0.047   0.000  -0.050
   24        0.002   0.018   0.000   0.020
   25        0.002   0.011   0.000   0.014
   26        0.001  -0.008   0.000  -0.007
   27        0.002   0.005   0.000   0.008
   28        0.001   0.004   0.000   0.005
   29        0.000   0.001   0.000   0.001
   30        0.000   0.003   0.000   0.003
   31       -0.002  -0.035   0.000  -0.037
   32        0.001   0.010   0.000   0.012
   33       -0.000  -0.009   0.000  -0.009
   34       -0.001  -0.010   0.000  -0.010
   35       -0.001  -0.007   0.000  -0.007
   36        0.001   0.002   0.000   0.002
   37        0.000   0.003   0.000   0.003
   38       -0.001  -0.008   0.000  -0.008
   39       -0.000  -0.002   0.000  -0.002
   40        0.001   0.006   0.000   0.006
   41        0.000   0.002   0.000   0.002
   42       -0.001  -0.011   0.000  -0.012
   43       -0.000  -0.013   0.000  -0.013
   44        0.000   0.002   0.000   0.002
   45        0.000   0.001   0.000   0.001
   46       -0.000  -0.007   0.000  -0.007
   47       -0.003  -0.048   0.000  -0.050
   48        0.000  -0.005   0.000  -0.004
   49       -0.000  -0.005   0.000  -0.005
   50       -0.018  -0.069   0.000  -0.087
   51       -0.004  -0.069   0.000  -0.073
   52       -0.017  -0.102   0.000  -0.119
   53       -0.001  -0.021   0.000  -0.022
   54       -0.000  -0.008   0.000  -0.008
   55       -0.001  -0.004   0.000  -0.004
   56       -0.005  -0.096   0.000  -0.101
   57        0.003  -0.000  -0.004  -0.001
   58        0.054   0.016   2.857   2.928
--------------------------------------------------
tot          0.010  -0.575   2.854   2.290
 

 total amount of memory used by VASP MPI-rank0   134106. kBytes
=======================================================================

   base      :      30000. kBytes
   nonl-proj :       3785. kBytes
   fftplans  :      12971. kBytes
   grid      :      33177. kBytes
   one-center:         62. kBytes
   HF        :         23. kBytes
   nonlr-proj:      15517. kBytes
   wavefun   :      38571. kBytes
 
  
  
 General timing and accounting informations for this job:
 ========================================================
  
                  Total CPU time used (sec):     3513.369
                            User time (sec):     3495.534
                          System time (sec):       17.835
                         Elapsed time (sec):     3521.799
  
                   Maximum memory used (kb):      366136.
                   Average memory used (kb):           0.
  
                          Minor page faults:      2903117
                          Major page faults:            0
                 Voluntary context switches:         1077
