 vasp.5.4.4.18Apr17-6-g9f103f2a35 (build Feb 25 2019 10:51:38) complex          
  
 executed on             LinuxIFC date 2021.06.16  10:02:48
 running on   80 total cores
 distrk:  each k-point on   40 cores,    2 groups
 distr:  one band on NCORES_PER_BAND=  40 cores,    1 groups


--------------------------------------------------------------------------------------------------------


 INCAR:
 POTCAR:    PAW_PBE C 08Apr2002                   
 POTCAR:    PAW_PBE N 08Apr2002                   
 POTCAR:    PAW_PBE Fe 06Sep2000                  
 POTCAR:    PAW_PBE V 08Apr2002                   

 ----------------------------------------------------------------------------- 
|                                                                             |
|           W    W    AA    RRRRR   N    N  II  N    N   GGGG   !!!           |
|           W    W   A  A   R    R  NN   N  II  NN   N  G    G  !!!           |
|           W    W  A    A  R    R  N N  N  II  N N  N  G       !!!           |
|           W WW W  AAAAAA  RRRRR   N  N N  II  N  N N  G  GGG   !            |
|           WW  WW  A    A  R   R   N   NN  II  N   NN  G    G                |
|           W    W  A    A  R    R  N    N  II  N    N   GGGG   !!!           |
|                                                                             |
|      For optimal performance we recommend to set                            |
|        NCORE= 4 - approx SQRT( number of cores)                             |
|      NCORE specifies how many cores store one orbital (NPAR=cpu/NCORE).     |
|      This setting can  greatly improve the performance of VASP for DFT.     |
|      The default,   NCORE=1            might be grossly inefficient         |
|      on modern multi-core architectures or massively parallel machines.     |
|      Do your own testing !!!!                                               |
|      Unfortunately you need to use the default for GW and RPA calculations. |
|      (for HF NCORE is supported but not extensively tested yet)             |
|                                                                             |
 ----------------------------------------------------------------------------- 


 ----------------------------------------------------------------------------- 
|                                                                             |
|           W    W    AA    RRRRR   N    N  II  N    N   GGGG   !!!           |
|           W    W   A  A   R    R  NN   N  II  NN   N  G    G  !!!           |
|           W    W  A    A  R    R  N N  N  II  N N  N  G       !!!           |
|           W WW W  AAAAAA  RRRRR   N  N N  II  N  N N  G  GGG   !            |
|           WW  WW  A    A  R   R   N   NN  II  N   NN  G    G                |
|           W    W  A    A  R    R  N    N  II  N    N   GGGG   !!!           |
|                                                                             |
|      You have enabled k-point parallelism (KPAR>1).                         |
|      This developmental code was originally  written by Paul Kent at ORNL,  |
|      and carefully double checked in Vienna.                                |
|      GW as well as linear response parallelism added by Martijn Marsman     |
|      and Georg Kresse.                                                      |
|      Carefully verify results versus KPAR=1.                                |
|      Report problems to Paul Kent and Vienna.                               |
|                                                                             |
 ----------------------------------------------------------------------------- 

 POTCAR:    PAW_PBE C 08Apr2002                   
   VRHFIN =C: s2p2                                                              
   LEXCH  = PE                                                                  
   EATOM  =   147.1560 eV,   10.8157 Ry                                         
                                                                                
   TITEL  = PAW_PBE C 08Apr2002                                                 
   LULTRA =        F    use ultrasoft PP ?                                      
   IUNSCR =        1    unscreen: 0-lin 1-nonlin 2-no                           
   RPACOR =    1.200    partial core radius                                     
   POMASS =   12.011; ZVAL   =    4.000    mass and valenz                      
   RCORE  =    1.500    outmost cutoff radius                                   
   RWIGS  =    1.630; RWIGS  =    0.863    wigner-seitz radius (au A)           
   ENMAX  =  400.000; ENMIN  =  300.000 eV                                      
   ICORE  =        2    local potential                                         
   LCOR   =        T    correct aug charges                                     
   LPAW   =        T    paw PP                                                  
   EAUG   =  644.873                                                            
   DEXC   =    0.000                                                            
   RMAX   =    1.529    core radius for proj-oper                               
   RAUG   =    1.300    factor for augmentation sphere                          
   RDEP   =    1.501    radius for radial grids                                 
   RDEPT  =    1.300    core radius for aug-charge                              
                                                                                
   Atomic configuration                                                         
    4 entries                                                                   
     n  l   j            E        occ.                                          
     1  0  0.50      -273.3789   2.0000                                         
     2  0  0.50       -13.7508   2.0000                                         
     2  1  0.50        -5.2854   2.0000                                         
     3  2  1.50        -5.4423   0.0000                                         
   Description                                                                  
     l       E           TYP  RCUT    TYP  RCUT                                 
     0    -13.7508458     23  1.200                                             
     0     -8.2022199     23  1.200                                             
     1     -5.2854383     23  1.500                                             
     1     34.0145650     23  1.500                                             
     2     -5.4423304      7  1.500                                             
  local pseudopotential read in
  partial core-charges read in
  partial kinetic energy density read in
  atomic valenz-charges read in
  non local Contribution for L=           0  read in
    real space projection operators read in
  non local Contribution for L=           0  read in
    real space projection operators read in
  non local Contribution for L=           1  read in
    real space projection operators read in
  non local Contribution for L=           1  read in
    real space projection operators read in
    PAW grid and wavefunctions read in
 
   number of l-projection  operators is LMAX  =           4
   number of lm-projection operators is LMMAX =           8
 
 POTCAR:    PAW_PBE N 08Apr2002                   
   VRHFIN =N: s2p3                                                              
   LEXCH  = PE                                                                  
   EATOM  =   264.5486 eV,   19.4438 Ry                                         
                                                                                
   TITEL  = PAW_PBE N 08Apr2002                                                 
   LULTRA =        F    use ultrasoft PP ?                                      
   IUNSCR =        1    unscreen: 0-lin 1-nonlin 2-no                           
   RPACOR =    1.200    partial core radius                                     
   POMASS =   14.001; ZVAL   =    5.000    mass and valenz                      
   RCORE  =    1.500    outmost cutoff radius                                   
   RWIGS  =    1.400; RWIGS  =    0.741    wigner-seitz radius (au A)           
   ENMAX  =  400.000; ENMIN  =  300.000 eV                                      
   ICORE  =        2    local potential                                         
   LCOR   =        T    correct aug charges                                     
   LPAW   =        T    paw PP                                                  
   EAUG   =  627.112                                                            
   DEXC   =    0.000                                                            
   RMAX   =    1.529    core radius for proj-oper                               
   RAUG   =    1.300    factor for augmentation sphere                          
   RDEP   =    1.514    radius for radial grids                                 
   RDEPT  =    1.338    core radius for aug-charge                              
                                                                                
   Atomic configuration                                                         
    4 entries                                                                   
     n  l   j            E        occ.                                          
     1  0  0.50      -384.7179   2.0000                                         
     2  0  0.50       -18.5828   2.0000                                         
     2  1  0.50        -7.0898   3.0000                                         
     3  2  1.50        -6.8029   0.0000                                         
   Description                                                                  
     l       E           TYP  RCUT    TYP  RCUT                                 
     0    -18.5828119     23  1.200                                             
     0    -13.5018863     23  1.200                                             
     1     -7.0897853     23  1.500                                             
     1      9.5240782     23  1.500                                             
     2     -6.8029130      7  1.500                                             
  local pseudopotential read in
  partial core-charges read in
  partial kinetic energy density read in
  atomic valenz-charges read in
  non local Contribution for L=           0  read in
    real space projection operators read in
  non local Contribution for L=           0  read in
    real space projection operators read in
  non local Contribution for L=           1  read in
    real space projection operators read in
  non local Contribution for L=           1  read in
    real space projection operators read in
    PAW grid and wavefunctions read in
 
   number of l-projection  operators is LMAX  =           4
   number of lm-projection operators is LMMAX =           8
 
 POTCAR:    PAW_PBE Fe 06Sep2000                  
   VRHFIN =Fe:  d7 s1                                                           
   LEXCH  = PE                                                                  
   EATOM  =   594.3153 eV,   43.6809 Ry                                         
                                                                                
   TITEL  = PAW_PBE Fe 06Sep2000                                                
   LULTRA =        F    use ultrasoft PP ?                                      
   IUNSCR =        1    unscreen: 0-lin 1-nonlin 2-no                           
   RPACOR =    2.000    partial core radius                                     
   POMASS =   55.847; ZVAL   =    8.000    mass and valenz                      
   RCORE  =    2.300    outmost cutoff radius                                   
   RWIGS  =    2.460; RWIGS  =    1.302    wigner-seitz radius (au A)           
   ENMAX  =  267.882; ENMIN  =  200.911 eV                                      
   RCLOC  =    1.701    cutoff for local pot                                    
   LCOR   =        T    correct aug charges                                     
   LPAW   =        T    paw PP                                                  
   EAUG   =  511.368                                                            
   DEXC   =    0.000                                                            
   RMAX   =    2.356    core radius for proj-oper                               
   RAUG   =    1.300    factor for augmentation sphere                          
   RDEP   =    2.442    radius for radial grids                                 
   RDEPT  =    1.890    core radius for aug-charge                              
                                                                                
   Atomic configuration                                                         
    9 entries                                                                   
     n  l   j            E        occ.                                          
     1  0  0.50     -6993.8440   2.0000                                         
     2  0  0.50      -814.6047   2.0000                                         
     2  1  1.50      -693.3689   6.0000                                         
     3  0  0.50       -89.4732   2.0000                                         
     3  1  1.50       -55.6373   6.0000                                         
     3  2  2.50        -3.8151   7.0000                                         
     4  0  0.50        -4.2551   1.0000                                         
     4  1  1.50        -3.4015   0.0000                                         
     4  3  2.50        -1.3606   0.0000                                         
   Description                                                                  
     l       E           TYP  RCUT    TYP  RCUT                                 
     2     -3.8151135     23  2.300                                             
     2     -5.1756961     23  2.300                                             
     0     -4.2550963     23  2.300                                             
     0      7.2035603     23  2.300                                             
     1     -2.7211652     23  2.300                                             
     1     18.4316424     23  2.300                                             
  local pseudopotential read in
  partial core-charges read in
  partial kinetic energy density read in
  atomic valenz-charges read in
  non local Contribution for L=           2  read in
    real space projection operators read in
  non local Contribution for L=           2  read in
    real space projection operators read in
  non local Contribution for L=           0  read in
    real space projection operators read in
  non local Contribution for L=           0  read in
    real space projection operators read in
  non local Contribution for L=           1  read in
    real space projection operators read in
  non local Contribution for L=           1  read in
    real space projection operators read in
    PAW grid and wavefunctions read in
 
   number of l-projection  operators is LMAX  =           6
   number of lm-projection operators is LMMAX =          18
 
 POTCAR:    PAW_PBE V 08Apr2002                   
   VRHFIN =V: p6 d4 s1                                                          
   LEXCH  = PE                                                                  
   EATOM  =   170.8679 eV,   12.5584 Ry                                         
                                                                                
   TITEL  = PAW_PBE V 08Apr2002                                                 
   LULTRA =        F    use ultrasoft PP ?                                      
   IUNSCR =        1    unscreen: 0-lin 1-nonlin 2-no                           
   RPACOR =    2.000    partial core radius                                     
   POMASS =   50.941; ZVAL   =    5.000    mass and valenz                      
   RCORE  =    2.700    outmost cutoff radius                                   
   RWIGS  =    2.500; RWIGS  =    1.323    wigner-seitz radius (au A)           
   ENMAX  =  192.543; ENMIN  =  144.408 eV                                      
   RCLOC  =    1.779    cutoff for local pot                                    
   LCOR   =        T    correct aug charges                                     
   LPAW   =        T    paw PP                                                  
   EAUG   =  358.662                                                            
   DEXC   =    0.000                                                            
   RMAX   =    2.768    core radius for proj-oper                               
   RAUG   =    1.300    factor for augmentation sphere                          
   RDEP   =    2.762    radius for radial grids                                 
   RDEPT  =    2.240    core radius for aug-charge                              
                                                                                
   Atomic configuration                                                         
    9 entries                                                                   
     n  l   j            E        occ.                                          
     1  0  0.50     -5360.7193   2.0000                                         
     2  0  0.50      -598.4546   2.0000                                         
     2  1  1.50      -499.0155   6.0000                                         
     3  0  0.50       -66.5711   2.0000                                         
     3  1  1.50       -40.5282   6.0000                                         
     3  2  2.50        -2.4291   4.0000                                         
     4  0  0.50        -3.8743   1.0000                                         
     4  1  0.50        -2.7212   0.0000                                         
     4  3  2.50        -1.3606   0.0000                                         
   Description                                                                  
     l       E           TYP  RCUT    TYP  RCUT                                 
     2     -2.4290901     23  2.700                                             
     2     -3.7896727     23  2.700                                             
     0     -3.8742752     23  2.700                                             
     0     27.2116520     23  2.700                                             
     1     -2.7211652     23  2.700                                             
     1     27.2116520     23  2.700                                             
  local pseudopotential read in
  partial core-charges read in
  partial kinetic energy density read in
  atomic valenz-charges read in
  non local Contribution for L=           2  read in
    real space projection operators read in
  non local Contribution for L=           2  read in
    real space projection operators read in
  non local Contribution for L=           0  read in
    real space projection operators read in
  non local Contribution for L=           0  read in
    real space projection operators read in
  non local Contribution for L=           1  read in
    real space projection operators read in
  non local Contribution for L=           1  read in
    real space projection operators read in
    PAW grid and wavefunctions read in
 
   number of l-projection  operators is LMAX  =           6
   number of lm-projection operators is LMMAX =          18
 

 ----------------------------------------------------------------------------- 
|                                                                             |
|  ADVICE TO THIS USER RUNNING 'VASP/VAMP'   (HEAR YOUR MASTER'S VOICE ...):  |
|                                                                             |
|      You have a (more or less) 'large supercell' and for larger cells       |
|      it might be more efficient to use real space projection opertators     |
|      So try LREAL= Auto  in the INCAR   file.                               |
|      Mind:          For very  accurate calculation you might also keep the  |
|      reciprocal projection scheme          (i.e. LREAL=.FALSE.)             |
|                                                                             |
 ----------------------------------------------------------------------------- 

  PAW_PBE C 08Apr2002                   :
 energy of atom  1       EATOM= -147.1560
 kinetic energy error for atom=    0.0076 (will be added to EATOM!!)
  PAW_PBE N 08Apr2002                   :
 energy of atom  2       EATOM= -264.5486
 kinetic energy error for atom=    0.0138 (will be added to EATOM!!)
  PAW_PBE Fe 06Sep2000                  :
 energy of atom  3       EATOM= -594.3153
 kinetic energy error for atom=    0.0026 (will be added to EATOM!!)
  PAW_PBE V 08Apr2002                   :
 energy of atom  4       EATOM= -170.8679
 kinetic energy error for atom=    0.0003 (will be added to EATOM!!)
 
 
 POSCAR:  C  N Fe  V                             
  positions in cartesian coordinates
  No initial velocities read in
 exchange correlation table for  LEXCH =        8
   RHO(1)=    0.500       N(1)  =     2000
   RHO(2)=  100.500       N(2)  =     4000

 VTST: version 3.2, (02/03/18)

 CHAIN: initializing optimizer
 
 OPT: Using VASP Conjugate-Gradient optimizer
 CHAIN: Read ICHAIN            0
 
 POSCAR:  C  N Fe  V                             
  positions in cartesian coordinates
  No initial velocities read in
 


--------------------------------------------------------------------------------------------------------


 ion  position               nearest neighbor table
   1  0.228  0.001  0.500-   3 1.46  18 1.46   4 1.46
   2  0.058  0.100  0.501-   7 1.42   3 1.43  33 1.45
   3  0.116  0.001  0.501-  16 1.43   2 1.43   1 1.46
   4  0.283  0.105  0.500-  20 1.46   5 1.46   1 1.46
   5  0.223  0.206  0.501-  50 1.39   7 1.45   4 1.46
   6  0.051  0.299  0.503-  10 1.41  37 1.42   7 1.43
   7  0.112  0.201  0.502-   2 1.42   6 1.43   5 1.45
   8  0.209  0.400  0.500-  50 1.39  10 1.40  11 1.41
   9  0.048  0.500  0.503-  41 1.41  10 1.42  14 1.42
  10  0.102  0.400  0.503-   8 1.40   6 1.41   9 1.42
  11  0.263  0.500  0.496-  54 1.36   8 1.41  12 1.42
  12  0.210  0.601  0.497-  51 1.39  14 1.40  11 1.42
  13  0.051  0.701  0.502-  14 1.41  45 1.42  17 1.44
  14  0.102  0.600  0.502-  12 1.40  13 1.41   9 1.42
  15  0.222  0.796  0.497-  51 1.39  17 1.45  18 1.46
  16  0.058  0.901  0.501-  17 1.42   3 1.43  49 1.45
  17  0.111  0.800  0.500-  16 1.42  13 1.44  15 1.45
  18  0.282  0.896  0.498-  15 1.46  28 1.46   1 1.46
  19  0.558  1.000  0.501-  22 1.43  29 1.43  21 1.44
  20  0.395  0.105  0.500-  52 1.40  21 1.45   4 1.46
  21  0.448  0.001  0.500-  19 1.44  28 1.45  20 1.45
  22  0.614  0.100  0.501-  23 1.42  19 1.43  31 1.43
  23  0.559  0.199  0.500-  52 1.39  22 1.42  24 1.44
  24  0.614  0.301  0.500-  53 1.40  35 1.42  23 1.44
  25  0.610  0.498  0.499-  53 1.40  55 1.40  39 1.44
  26  0.614  0.697  0.500-  55 1.41  43 1.41  27 1.46
  27  0.558  0.800  0.500-  56 1.39  29 1.42  26 1.46
  28  0.394  0.897  0.498-  56 1.39  21 1.45  18 1.46
  29  0.614  0.900  0.501-  27 1.42  19 1.43  47 1.43
  30  0.891  0.000  0.502-  49 1.42  33 1.42  32 1.44
  31  0.725  0.099  0.502-  36 1.41  32 1.42  22 1.43
  32  0.781  1.000  0.502-  31 1.42  47 1.42  30 1.44
  33  0.947  0.100  0.502-  30 1.42  34 1.43   2 1.45
  34  0.889  0.199  0.502-  37 1.41  33 1.43  36 1.43
  35  0.723  0.299  0.501-  24 1.42  40 1.42  36 1.43
  36  0.779  0.199  0.502-  31 1.41  35 1.43  34 1.43
  37  0.942  0.299  0.503-  34 1.41   6 1.42  38 1.43
  38  0.886  0.399  0.503-  41 1.42  40 1.42  37 1.43
  39  0.721  0.499  0.502-  40 1.42  44 1.43  25 1.44
  40  0.777  0.399  0.502-  35 1.42  38 1.42  39 1.42
  41  0.940  0.500  0.504-   9 1.41  38 1.42  42 1.42
  42  0.885  0.600  0.503-  41 1.42  44 1.42  45 1.43
  43  0.722  0.700  0.502-  26 1.41  44 1.43  48 1.43
  44  0.776  0.599  0.502-  42 1.42  43 1.43  39 1.43
  45  0.942  0.701  0.503-  46 1.41  13 1.42  42 1.43
  46  0.889  0.801  0.502-  45 1.41  49 1.43  48 1.43
  47  0.724  0.900  0.502-  48 1.41  32 1.42  29 1.43
  48  0.779  0.801  0.502-  47 1.41  46 1.43  43 1.43
  49  0.947  0.900  0.502-  30 1.42  46 1.43  16 1.45
  50  0.270  0.308  0.500-   5 1.39   8 1.39  57 1.92
  51  0.268  0.695  0.491-  15 1.39  12 1.39  58 2.04
  52  0.452  0.201  0.499-  23 1.39  20 1.40  57 1.94
  53  0.557  0.399  0.499-  25 1.40  24 1.40  57 1.98
  54  0.367  0.497  0.489-  11 1.36  57 1.87  58 1.92
  55  0.559  0.598  0.496-  25 1.40  26 1.41  58 2.02
  56  0.451  0.801  0.497-  27 1.39  28 1.39  58 2.07
  57  0.411  0.353  0.498-  54 1.87  50 1.92  52 1.94  53 1.98
  58  0.414  0.642  0.472-  54 1.92  55 2.02  51 2.04  56 2.07
 
  LATTYP: Found a triclinic cell.
 ALAT       =    12.2659000000
 B/A-ratio  =     1.4564292462
 C/A-ratio  =     1.6220905111
 COS(alpha) =     0.0002210126
 COS(beta)  =     0.0003089233
 COS(gamma) =     0.6848531507
  
  Lattice vectors:
  
 A1 = (   0.0295858744, -12.2658643188,   0.0000000000)
 A2 = ( -12.9879141256, -12.2658643188,   0.0000000000)
 A3 = (  -0.0002430804,  -0.0061470652, -19.8963990489)


Analysis of symmetry for initial positions (statically):
=====================================================================
 Subroutine PRICEL returns:
 Original cell was already a primitive cell.
 

 Routine SETGRP: Setting up the symmetry group for a 
 triclinic supercell.


 Subroutine GETGRP returns: Found  1 space group operations
 (whereof  1 operations were pure point group operations)
 out of a pool of  2 trial point group operations.


The static configuration has the point symmetry C_1 .


Analysis of symmetry for dynamics (positions and initial velocities):
=====================================================================
 Subroutine PRICEL returns:
 Original cell was already a primitive cell.
 

 Routine SETGRP: Setting up the symmetry group for a 
 triclinic supercell.


 Subroutine GETGRP returns: Found  1 space group operations
 (whereof  1 operations were pure point group operations)
 out of a pool of  2 trial point group operations.


The dynamic configuration has the point symmetry C_1 .


Analysis of structural, dynamic, and magnetic symmetry:
=====================================================================
 Subroutine PRICEL returns:
 Original cell was already a primitive cell.
 

 Routine SETGRP: Setting up the symmetry group for a 
 triclinic supercell.


 Subroutine GETGRP returns: Found  1 space group operations
 (whereof  1 operations were pure point group operations)
 out of a pool of  2 trial point group operations.


The magnetic configuration has the point symmetry C_1 .


 Subroutine INISYM returns: Found  1 space group operations
 (whereof  1 operations are pure point group operations),
 and found     1 'primitive' translations

 
 
 KPOINTS: KPOINTS created by Atomic Simulation Env

Automatic generation of k-mesh.
Space group operators:
 irot       det(A)        alpha          n_x          n_y          n_z        tau_x        tau_y        tau_z
    1     1.000000     0.000000     1.000000     0.000000     0.000000     0.000000     0.000000     0.000000
 
 Subroutine IBZKPT returns following result:
 ===========================================
 
 Found      2 irreducible k-points:
 
 Following reciprocal coordinates:
            Coordinates               Weight
  0.250000  0.250000 -0.000000      2.000000
 -0.250000  0.250000 -0.000000      2.000000
 
 Following cartesian coordinates:
            Coordinates               Weight
  0.019205  0.020428 -0.000007      2.000000
 -0.019205  0.020335 -0.000006      2.000000
 
 
 Subroutine IBZKPT_HF returns following result:
 ==============================================
 
 Found      4 k-points in 1st BZ
 the following      4 k-points will be used (e.g. in the exchange kernel)
 Following reciprocal coordinates:   # in IRBZ
  0.250000  0.250000 -0.000000    0.25000000   1 t-inv F
 -0.250000  0.250000 -0.000000    0.25000000   2 t-inv F
 -0.250000 -0.250000  0.000000    0.25000000   1 t-inv T
  0.250000 -0.250000  0.000000    0.25000000   2 t-inv T


--------------------------------------------------------------------------------------------------------




 Dimension of arrays:
   k-points           NKPTS =      2   k-points in BZ     NKDIM =      4   number of bands    NBANDS=    156
   number of dos      NEDOS =    301   number of ions     NIONS =     58
   non local maximal  LDIM  =      6   non local SUM 2l+1 LMDIM =     18
   total plane-waves  NPLWV = ******
   max r-space proj   IRMAX =      1   max aug-charges    IRDMAX=  24936
   dimension x,y,z NGX =    96 NGY =   90 NGZ =  150
   dimension x,y,z NGXF=   192 NGYF=  180 NGZF=  300
   support grid    NGXF=   192 NGYF=  180 NGZF=  300
   ions per type =              49   7   1   1
   NGX,Y,Z   is equivalent  to a cutoff of  12.26, 12.20, 12.53 a.u.
   NGXF,Y,Z  is equivalent  to a cutoff of  24.52, 24.40, 25.07 a.u.

 SYSTEM =  unknown system                          
 POSCAR =   C  N Fe  V                             

 Startparameter for this run:
   NWRITE =      2    write-flag & timer
   PREC   = accura    normal or accurate (medium, high low for compatibility)
   ISTART =      1    job   : 0-new  1-cont  2-samecut
   ICHARG =      0    charge: 1-file 2-atom 10-const
   ISPIN  =      2    spin polarized calculation?
   LNONCOLLINEAR =      F non collinear calculations
   LSORBIT =      F    spin-orbit coupling
   INIWAV =      1    electr: 0-lowe 1-rand  2-diag
   LASPH  =      T    aspherical Exc in radial PAW
   METAGGA=      F    non-selfconsistent MetaGGA calc.

 Electronic Relaxation 1
   ENCUT  =  500.0 eV  36.75 Ry    6.06 a.u.  23.73 22.36 36.28*2*pi/ulx,y,z
   ENINI  =  500.0     initial cutoff
   ENAUG  =  644.9 eV  augmentation charge cutoff
   NELM   =    250;   NELMIN=  2; NELMDL=  0     # of ELM steps 
   EDIFF  = 0.1E-03   stopping-criterion for ELM
   LREAL  =      F    real-space projection
   NLSPLINE    = F    spline interpolate recip. space projectors
   LCOMPAT=      F    compatible to vasp.4.4
   GGA_COMPAT  = T    GGA compatible to vasp.4.4-vasp.4.6
   LMAXPAW     = -100 max onsite density
   LMAXMIX     =    2 max onsite mixed and CHGCAR
   VOSKOWN=      0    Vosko Wilk Nusair interpolation
   ROPT   =    0.00000   0.00000   0.00000   0.00000
 Ionic relaxation
   EDIFFG = -.3E-01   stopping-criterion for IOM
   NSW    =      0    number of steps for IOM
   NBLOCK =      1;   KBLOCK =      1    inner block; outer block 
   IBRION =     -1    ionic relax: 0-MD 1-quasi-New 2-CG
   NFREE  =      1    steps in history (QN), initial steepest desc. (CG)
   ISIF   =      2    stress and relaxation
   IWAVPR =     10    prediction:  0-non 1-charg 2-wave 3-comb
   ISYM   =      3    0-nonsym 1-usesym 2-fastsym
   LCORR  =      T    Harris-Foulkes like correction to forces

   POTIM  = 0.5000    time-step for ionic-motion
   TEIN   =    0.0    initial temperature
   TEBEG  =    0.0;   TEEND  =   0.0 temperature during run
   SMASS  =  -3.00    Nose mass-parameter (am)
   estimated Nose-frequenzy (Omega)   =  0.10E-29 period in steps =****** mass=  -0.387E-26a.u.
   SCALEE = 1.0000    scale energy and forces
   NPACO  =    256;   APACO  = 16.0  distance and # of slots for P.C.
   PSTRESS=    0.0 pullay stress

  Mass of Ions in am
   POMASS =  12.01 14.00 55.85 50.94
  Ionic Valenz
   ZVAL   =   4.00  5.00  8.00  5.00
  Atomic Wigner-Seitz radii
   RWIGS  =  -1.00 -1.00 -1.00 -1.00
  virtual crystal weights 
   VCA    =   1.00  1.00  1.00  1.00
   NELECT =     244.0000    total number of electrons
   NUPDOWN=      -1.0000    fix difference up-down

 DOS related values:
   EMIN   =  10.00;   EMAX   =-10.00  energy-range for DOS
   EFERMI =   0.00
   ISMEAR =     0;   SIGMA  =   0.10  broadening in eV -4-tet -1-fermi 0-gaus

 Electronic relaxation 2 (details)
   IALGO  =     53    algorithm
   LDIAG  =      T    sub-space diagonalisation (order eigenvalues)
   LSUBROT=      F    optimize rotation matrix (better conditioning)
   TURBO    =      0    0=normal 1=particle mesh
   IRESTART =      0    0=no restart 2=restart with 2 vectors
   NREBOOT  =      0    no. of reboots
   NMIN     =      0    reboot dimension
   EREF     =   0.00    reference energy to select bands
   IMIX   =      4    mixing-type and parameters
     AMIX     =   0.40;   BMIX     =  1.00
     AMIX_MAG =   1.60;   BMIX_MAG =  1.00
     AMIN     =   0.10
     WC   =   100.;   INIMIX=   1;  MIXPRE=   1;  MAXMIX= -45

 Intra band minimization:
   WEIMIN = 0.0000     energy-eigenvalue tresh-hold
   EBREAK =  0.16E-06  absolut break condition
   DEPER  =   0.30     relativ break condition  

   TIME   =   0.20     timestep for ELM

  volume/ion in A,a.u.               =      54.77       369.63
  Fermi-wavevector in a.u.,A,eV,Ry     =   0.695886  1.315034  6.588719  0.484257
  Thomas-Fermi vector in A             =   1.778783
 
 Write flags
   LWAVE        =      T    write WAVECAR
   LDOWNSAMPLE  =      F    k-point downsampling of WAVECAR
   LCHARG       =      T    write CHGCAR
   LVTOT        =      F    write LOCPOT, total local potential
   LVHAR        =      F    write LOCPOT, Hartree potential only
   LELF         =      F    write electronic localiz. function (ELF)
   LORBIT       =     11    0 simple, 1 ext, 2 COOP (PROOUT), +10 PAW based schemes


 Dipole corrections
   LMONO  =      F    monopole corrections only (constant potential shift)
   LDIPOL =      T    correct potential (dipole corrections)
   IDIPOL =      3    1-x, 2-y, 3-z, 4-all directions 
   EPSILON=  1.0000000 bulk dielectric constant

 Exchange correlation treatment:
   GGA     =    PE    GGA type
   LEXCH   =     8    internal setting for exchange type
   VOSKOWN=      0    Vosko Wilk Nusair interpolation
   EXXOEP  =     0    0=HF, 1=EXX-LHF (local Hartree Fock) 2=EXX OEP
   LHFCALC =     T    Hartree Fock is set to
   LSYMGRAD=     F    symmetrize gradient (conserves proper symmetry)
   PRECFOCK=normal    Normal, Fast or Accurate (Low or Medium for compatibility)
   LRHFCALC=     F    long range Hartree Fock
   LRSCOR  =     F    long range correlation only (use DFT for short range part)
   LTHOMAS =     F    Thomas Fermi screening in HF
   LMODELHF=     F    short range full HF, long range fraction AEXX
   ENCUT4O =  -1.0   cutoff for four orbital integrals eV
   LMAXFOCK=     4    L truncation for augmentation on plane wave grid
   LMAXFOCKAE=  -1    L truncation for all-electron charge restoration on plane wave grid
   NMAXFOCKAE=   1    number of basis functions for all-electron charge restoration
   LFOCKAEDFT=     F  apply the AE augmentation even for DFT
   NKREDX  =     1    reduce k-point grid by
   NKREDY  =     1    reduce k-point grid by
   NKREDZ  =     1    reduce k-point grid by
   SHIFTRED=     F    shift reduced grid of Gamma
   HFKIDENT=     F    idential grid for each k-point
   ODDONLY =     F    use only odd q-grid points
   EVENONLY=     F    use only even q-grid points
   HFALPHA =   -1.0000 decay constant for conv. correction
   MCALPHA =    0.0000 extent of test-charge in conv. correction in multipole expansion
   AEXX    =    0.2500 exact exchange contribution
   HFSCREEN=    0.2000 screening length (either q_TF or 0.3 A-1)
   HFSCREENC=   0.2000 screening length for correlation (either q_TF or 0.3 A-1)
   HFRCUT  =    0.0000 spherical cutoff for potential kernel
   ALDAX   =    0.7500 LDA exchange part
   AGGAX   =    0.7500 GGA exchange part
   ALDAC   =    1.0000 LDA correlation
   AGGAC   =    1.0000 GGA correlation
   ENCUTFOCK=  -1.0 apply spherical cutoff to Coloumb kernel
   NBANDSGWLOW=     1    first orbital included in HF term
   NBLOCK_FOCK=    64    blocking factor in FOCK_ACC
 Linear response parameters
   LEPSILON=     F    determine dielectric tensor
   LRPA    =     F    only Hartree local field effects (RPA)
   LNABLA  =     F    use nabla operator in PAW spheres
   LVEL    =     F    velocity operator in full k-point grid
   LINTERFAST=   F  fast interpolation
   KINTER  =     0    interpolate to denser k-point grid
   CSHIFT  =0.1000    complex shift for real part using Kramers Kronig
   OMEGAMAX=  -1.0    maximum frequency
   DEG_THRESHOLD= 0.2000000E-02 threshold for treating states as degnerate
   RTIME   =   -0.100 relaxation time in fs
  (WPLASMAI=    0.000 imaginary part of plasma frequency in eV, 0.658/RTIME)
   DFIELD  = 0.0000000 0.0000000 0.0000000 field for delta impulse in time
 
 Orbital magnetization related:
   ORBITALMAG=     F  switch on orbital magnetization
   LCHIMAG   =     F  perturbation theory with respect to B field
   DQ        =  0.001000  dq finite difference perturbation B field
   LLRAUG    =     F  two centre corrections for induced B field



--------------------------------------------------------------------------------------------------------


 Static calculation
 charge density and potential will be updated during run
 spin polarized calculation
 Conjugate gradient for all bands (Freysoldt, et al. PRB 79, 241103 (2009))
 perform sub-space diagonalisation
    before iterative eigenvector-optimisation
 modified Broyden-mixing scheme, WC =      100.0
 initial mixing is a Kerker type mixing with AMIX =  0.4000 and BMIX =      1.0000
 Hartree-type preconditioning will be used
 using additional bands           34
 reciprocal scheme for non local part
 use partial core corrections
 no Harris-corrections to forces 
 use gradient corrections 
 use of overlap-Matrix (Vanderbilt PP)
 Gauss-broadening in eV      SIGMA  =   0.10


--------------------------------------------------------------------------------------------------------


  energy-cutoff  :      500.00
  volume of cell :     3176.88
      direct lattice vectors                 reciprocal lattice vectors
    13.017500000  0.000000000  0.000000000     0.076819666  0.000185293 -0.000000996
    -0.029585874 12.265864319  0.000000000     0.000000000  0.081527072 -0.000025188
     0.000243080  0.006147065 19.896399049     0.000000000  0.000000000  0.050260351

  length of vectors
    13.017500000 12.265900000 19.896400000     0.076819889  0.081527076  0.050260351


 
 old parameters found on file WAVECAR:
  energy-cutoff  :      500.00
  volume of cell :     3176.88
      direct lattice vectors                 reciprocal lattice vectors
    13.017500000  0.000000000  0.000000000     0.076819666  0.000185293 -0.000000996
    -0.029585874 12.265864319  0.000000000     0.000000000  0.081527072 -0.000025188
     0.000243080  0.006147065 19.896399049     0.000000000  0.000000000  0.050260351

  length of vectors

 
 k-points in units of 2pi/SCALE and weight: KPOINTS created by Atomic Simulation Env
   0.01920492  0.02042809 -0.00000655       0.500
  -0.01920492  0.02033544 -0.00000605       0.500
 
 k-points in reciprocal lattice and weights: KPOINTS created by Atomic Simulation Env
   0.25000000  0.25000000 -0.00000000       0.500
  -0.25000000  0.25000000 -0.00000000       0.500
 
 position of ions in fractional coordinates (direct lattice) 
   0.22783321  0.00087469  0.49956409
   0.05831074  0.10015281  0.50144618
   0.11565437  0.00052452  0.50056890
   0.28269965  0.10529277  0.49991947
   0.22317643  0.20614906  0.50062477
   0.05118489  0.29885129  0.50295601
   0.11165856  0.20138829  0.50174139
   0.20947905  0.40035484  0.50018346
   0.04797568  0.50013890  0.50336798
   0.10221366  0.40006600  0.50271912
   0.26264642  0.50002231  0.49551239
   0.20963014  0.60057655  0.49678933
   0.05089086  0.70138006  0.50156075
   0.10236535  0.60036230  0.50156333
   0.22182192  0.79570318  0.49662011
   0.05799359  0.90089377  0.50106607
   0.11101127  0.79966257  0.50013937
   0.28201072  0.89641200  0.49769863
   0.55813671  0.99974801  0.50089284
   0.39489288  0.10489152  0.49960540
   0.44771523  0.00085466  0.50004592
   0.61438439  0.09960653  0.50101449
   0.55893908  0.19905648  0.49989330
   0.61395846  0.30115371  0.50004367
   0.60983077  0.49783701  0.49923882
   0.61353602  0.69738556  0.49982420
   0.55797235  0.80025427  0.49980581
   0.39443628  0.89710409  0.49830156
   0.61414966  0.89981174  0.50137465
   0.89101629  0.00004025  0.50189852
   0.72453620  0.09913035  0.50157753
   0.78052525  0.99981991  0.50193213
   0.94690985  0.09984006  0.50188397
   0.88897277  0.19856790  0.50228274
   0.72269732  0.29873311  0.50136133
   0.77895920  0.19869001  0.50174516
   0.94212953  0.29897493  0.50312561
   0.88592387  0.39922273  0.50340763
   0.72067841  0.49889895  0.50174186
   0.77682540  0.39934838  0.50235940
   0.93955696  0.49994411  0.50376766
   0.88540292  0.60031615  0.50316368
   0.72214735  0.70043413  0.50191905
   0.77621153  0.59948520  0.50231783
   0.94186691  0.70087306  0.50267825
   0.88873142  0.80129544  0.50244101
   0.72436295  0.90030487  0.50203511
   0.77869146  0.80080427  0.50240247
   0.94662635  0.90042981  0.50192981
   0.27025517  0.30754838  0.49975518
   0.26846895  0.69464724  0.49137825
   0.45239727  0.20134199  0.49864541
   0.55733647  0.39851059  0.49900297
   0.36654087  0.49676452  0.48896288
   0.55919455  0.59790548  0.49586888
   0.45135561  0.80118053  0.49669148
   0.41139931  0.35306986  0.49758355
   0.41419152  0.64225829  0.47201866
 
 position of ions in cartesian coordinates  (Angst):
   2.96591440  0.01379962  9.93952647
   0.75621881  1.23154321  9.97697324
   1.50563686  0.00951075  9.95951863
   3.67704909  1.29457985  9.94659734
   2.89922170  2.53167381  9.96063019
   0.65757980  3.66876111 10.00701343
   1.44767897  2.47328567  9.98284689
   2.71517031  4.91377278  9.95184966
   0.60984871  6.13773009 10.01521014
   1.31885217  4.91024548 10.00230012
   3.40432667  6.13625177  9.85891232
   2.71121250  7.36964432  9.88431880
   0.64184281  8.60611577  9.97925292
   1.31490066  7.36704563  9.97930407
   2.86414594  9.76304002  9.88095187
   0.72839961 11.05332085  9.96941042
   1.42155211  9.81162692  9.95097255
   3.64467437 10.99832731  9.90241054
   7.23608793 12.26585249  9.96596374
   5.13753623  1.28965625  9.94034846
   5.82822930  0.01355695  9.94911313
   7.99492369  1.22483991  9.96838413
   7.27022171  2.44467267  9.94607662
   7.98341592  3.69698435  9.94906834
   7.92386443  6.10947004  9.93305475
   7.96619392  8.55710914  9.94470167
   7.23985031  9.81888259  9.94433582
   5.10815382 11.00682010  9.91440671
   7.96819340 11.04005074  9.97555009
  11.59892534  0.00357894  9.98597329
   9.42883905  1.21900265  9.97958670
  10.13102887 12.26674078  9.98664186
  12.32356705  1.22770970  9.98568381
  11.56645036  2.43869448  9.99361785
   9.39899592  3.66730165  9.97528506
  10.13434489  2.44018902  9.98292189
  12.25544796  3.67027871 10.01038787
  11.52082493  4.89990636 10.01599908
   9.36679283  6.12251109  9.98285617
  10.10063170  4.90144107  9.99514300
  12.21601396  6.13534337 10.02316246
  11.50809395  7.36648948 10.01114545
   9.37995223  8.59451538  9.98638165
  10.08671943  7.35629191  9.99431607
  12.24013877  8.59990390 10.00148711
  11.54547632  9.83166965  9.99676689
   9.40288039 11.04610346  9.98869089
  10.11304569  9.82564484  9.99599993
  12.29619053 11.04763533  9.98659587
   3.50906902  3.77541869  9.94332840
   3.47436228  8.52346935  9.77665780
   5.88324584  2.47269875  9.92124803
   7.24345855  4.89114421  9.92836221
   4.75686745  6.09625184  9.72860067
   7.26174600  7.33687566  9.86600521
   5.85193875  9.83022481  9.88237179
   5.34506565  4.33376572  9.90012093
   5.37285106  7.88075453  9.39147154
 


--------------------------------------------------------------------------------------------------------


 k-point  1 :   0.2500 0.2500-0.0000  plane waves:   80640
 k-point  2 :  -0.2500 0.2500-0.0000  plane waves:   80664

 maximum and minimum number of plane-waves per node :      2040     1986

 maximum number of plane-waves:     80664
 maximum index in each direction: 
   IXMAX=   23   IYMAX=   22   IZMAX=   36
   IXMIN=  -23   IYMIN=  -22   IZMIN=  -36


 parallel 3D FFT for wavefunctions:
    minimum data exchange during FFTs selected (reduces bandwidth)
 parallel 3D FFT for charge:
    minimum data exchange during FFTs selected (reduces bandwidth)


 FFT grid for exact exchange (Hartree Fock) 
  NGX = 72; NGY = 70; NGZ =112

 
 Radii for the augmentation spheres in the non-local exchange
 for species   1 augmentation radius   0.874 (default was   0.699)
       energy cutoff for augmentation   2000.0
 for species   2 augmentation radius   0.886 (default was   0.709)
       energy cutoff for augmentation   2000.0
 for species   3 augmentation radius   1.263 (default was   1.010)
       energy cutoff for augmentation   2000.0
 for species   4 augmentation radius   1.508 (default was   1.206)
       energy cutoff for augmentation   2000.0

 real space projection operators:
  total allocation   :       2742.64 KBytes
  max/ min on nodes  :        126.02         23.77

 Maximum index for augmentation-charges in exchange           79
  SETUP_FOCK is finished

 total amount of memory used by VASP MPI-rank0   139629. kBytes
=======================================================================

   base      :      30000. kBytes
   nonl-proj :       4259. kBytes
   fftplans  :      11188. kBytes
   grid      :      29312. kBytes
   one-center:         62. kBytes
   HF        :         23. kBytes
   nonlr-proj:       2667. kBytes
   wavefun   :      62118. kBytes
 
     INWAV:  cpu time    3.5635: real time    6.0706
 Broyden mixing: mesh for mixing (old mesh)
   NGX = 47   NGY = 45   NGZ = 73
  (NGX  =192   NGY  =180   NGZ  =300)
  gives a total of 154395 points

 charge density for first step will be calculated from the start-wavefunctions


--------------------------------------------------------------------------------------------------------


 Maximum index for augmentation-charges         1013 (set IRDMAX)


--------------------------------------------------------------------------------------------------------


 initial charge from wavefunction
 First call to EWALD:  gamma=   0.121
 Maximum number of real-space cells 3x 3x 2
 Maximum number of reciprocal cells 2x 2x 4

    FEWALD:  cpu time    0.0033: real time    0.0033


--------------------------------------- Iteration      1(   1)  ---------------------------------------


    POTLOK:  cpu time    1.0249: real time    1.0309
    SETDIJ:  cpu time    1.1867: real time    1.1902
    TRIAL :  cpu time  193.7535: real time  194.5305
    CORREC:  cpu time    0.0012: real time    0.0012
    CHARGE:  cpu time    0.9084: real time    0.9109
    --------------------------------------------
      LOOP:  cpu time  196.8968: real time  197.6876

 eigenvalue-minimisations  :     0
 total energy-change (2. order) :-0.6098504E+03  (-0.6169055E+00)
 number of electron     244.0000029 magnetization       2.2300861
 augmentation part       12.1317068 magnetization       1.5487273

 DIPCOR: dipole corrections for dipol
 direction  3 min pos     1,
 dipolmoment           0.000002      0.000042      0.134643 electrons x Angstroem
 Tr[quadrupol]     -6505.812786

 energy correction for charged system         0.000000 eV
 dipol+quadrupol energy correction            0.000518 eV
 added-field ion interaction          0.000000 eV  (added to PSCEN)


 Free energy of the ion-electron system (eV)
  ---------------------------------------------------
  alpha Z        PSCENC =       100.27160661
  Ewald energy   TEWEN  =     38905.10854387
  -Hartree energ DENC   =    -47287.20281889
  -exchange      EXHF   =       555.61815213
  -V(xc)+E(xc)   XCENC  =       592.82000388
  PAW double counting   =     26207.05249575   -26207.19017439
  entropy T*S    EENTRO =        -0.02443357
  eigenvalues    EBANDS =     -3189.01205600
  atomic energy  EATOM  =      9712.71844313
  ---------------------------------------------------
  free energy    TOTEN  =      -609.85044911 eV

  energy without entropy =     -609.82601554  energy(sigma->0) =     -609.83823232
  exchange ACFDT corr.  =        -0.11168920  see jH, gK, PRB 81, 115126


--------------------------------------------------------------------------------------------------------




--------------------------------------- Iteration      1(   2)  ---------------------------------------


    POTLOK:  cpu time    1.0451: real time    1.0491
    SETDIJ:  cpu time    1.2105: real time    1.2136
    TRIAL :  cpu time  192.8382: real time  193.5908
    CORREC:  cpu time    0.0017: real time    0.0017
    CHARGE:  cpu time    0.9082: real time    0.9107
    --------------------------------------------
      LOOP:  cpu time  196.0044: real time  196.7710

 eigenvalue-minimisations  :     0
 total energy-change (2. order) :-0.5132371E+00  (-0.6149427E+00)
 number of electron     244.0000029 magnetization       2.0868239
 augmentation part       12.0969161 magnetization       1.5003849

 DIPCOR: dipole corrections for dipol
 direction  3 min pos     1,
 dipolmoment           0.000002      0.000047      0.152581 electrons x Angstroem
 Tr[quadrupol]     -6505.652655

 energy correction for charged system         0.000000 eV
 dipol+quadrupol energy correction            0.000666 eV
 added-field ion interaction          0.000000 eV  (added to PSCEN)


 Free energy of the ion-electron system (eV)
  ---------------------------------------------------
  alpha Z        PSCENC =       100.27175396
  Ewald energy   TEWEN  =     38905.10854387
  -Hartree energ DENC   =    -47273.15384399
  -exchange      EXHF   =       555.69376020
  -V(xc)+E(xc)   XCENC  =       592.48883993
  PAW double counting   =     26340.92952465   -26340.70952051
  entropy T*S    EENTRO =        -0.01164066
  eigenvalues    EBANDS =     -3203.68675384
  atomic energy  EATOM  =      9712.71844313
  ---------------------------------------------------
  free energy    TOTEN  =      -610.36368618 eV

  energy without entropy =     -610.35204552  energy(sigma->0) =     -610.35786585
  exchange ACFDT corr.  =        -0.11680545  see jH, gK, PRB 81, 115126


--------------------------------------------------------------------------------------------------------




--------------------------------------- Iteration      1(   3)  ---------------------------------------


    POTLOK:  cpu time    1.0488: real time    1.0521
    SETDIJ:  cpu time    1.1908: real time    1.1942
    TRIAL :  cpu time  192.9060: real time  193.6157
    CORREC:  cpu time    0.0014: real time    0.0014
    CHARGE:  cpu time    0.9078: real time    0.9101
    --------------------------------------------
      LOOP:  cpu time  196.0557: real time  196.7794

 eigenvalue-minimisations  :     0
 total energy-change (2. order) :-0.4552279E+00  (-0.3629554E+00)
 number of electron     244.0000029 magnetization       2.0309811
 augmentation part       12.1020371 magnetization       1.4911637

 DIPCOR: dipole corrections for dipol
 direction  3 min pos     1,
 dipolmoment           0.000002      0.000048      0.153937 electrons x Angstroem
 Tr[quadrupol]     -6505.497867

 energy correction for charged system         0.000000 eV
 dipol+quadrupol energy correction            0.000678 eV
 added-field ion interaction          0.000000 eV  (added to PSCEN)


 Free energy of the ion-electron system (eV)
  ---------------------------------------------------
  alpha Z        PSCENC =       100.27176584
  Ewald energy   TEWEN  =     38905.10854387
  -Hartree energ DENC   =    -47258.18359651
  -exchange      EXHF   =       555.82008406
  -V(xc)+E(xc)   XCENC  =       592.11045633
  PAW double counting   =     26512.01038134   -26511.63738528
  entropy T*S    EENTRO =        -0.00498200
  eigenvalues    EBANDS =     -3219.02596622
  atomic energy  EATOM  =      9712.71844313
  ---------------------------------------------------
  free energy    TOTEN  =      -610.81891410 eV

  energy without entropy =     -610.81393211  energy(sigma->0) =     -610.81642311
  exchange ACFDT corr.  =        -0.03547453  see jH, gK, PRB 81, 115126


--------------------------------------------------------------------------------------------------------




--------------------------------------- Iteration      1(   4)  ---------------------------------------


    POTLOK:  cpu time    1.0514: real time    1.0556
    SETDIJ:  cpu time    1.2168: real time    1.2200
    TRIAL :  cpu time  192.4418: real time  193.1574
    CORREC:  cpu time    0.0016: real time    0.0016
    CHARGE:  cpu time    0.9038: real time    0.9061
    --------------------------------------------
      LOOP:  cpu time  195.6166: real time  196.3474

 eigenvalue-minimisations  :     0
 total energy-change (2. order) :-0.2595307E+00  (-0.1922495E+00)
 number of electron     244.0000029 magnetization       2.0112921
 augmentation part       12.1092207 magnetization       1.4886770

 DIPCOR: dipole corrections for dipol
 direction  3 min pos     1,
 dipolmoment           0.000002      0.000047      0.152880 electrons x Angstroem
 Tr[quadrupol]     -6505.455230

 energy correction for charged system         0.000000 eV
 dipol+quadrupol energy correction            0.000668 eV
 added-field ion interaction          0.000000 eV  (added to PSCEN)


 Free energy of the ion-electron system (eV)
  ---------------------------------------------------
  alpha Z        PSCENC =       100.27175657
  Ewald energy   TEWEN  =     38905.10854387
  -Hartree energ DENC   =    -47252.26830874
  -exchange      EXHF   =       556.04280906
  -V(xc)+E(xc)   XCENC  =       591.93011214
  PAW double counting   =     26655.80021694   -26655.61003438
  entropy T*S    EENTRO =        -0.00210432
  eigenvalues    EBANDS =     -3225.06700134
  atomic energy  EATOM  =      9712.71844313
  ---------------------------------------------------
  free energy    TOTEN  =      -611.07844476 eV

  energy without entropy =     -611.07634043  energy(sigma->0) =     -611.07739260
  exchange ACFDT corr.  =        -0.00872228  see jH, gK, PRB 81, 115126


--------------------------------------------------------------------------------------------------------




--------------------------------------- Iteration      1(   5)  ---------------------------------------


    POTLOK:  cpu time    1.0537: real time    1.0567
    SETDIJ:  cpu time    1.2186: real time    1.2217
    TRIAL :  cpu time  192.3392: real time  193.0415
    CORREC:  cpu time    0.0013: real time    0.0013
    CHARGE:  cpu time    0.8996: real time    0.9019
    --------------------------------------------
      LOOP:  cpu time  195.5135: real time  196.2283

 eigenvalue-minimisations  :     0
 total energy-change (2. order) :-0.1469981E+00  (-0.1166537E+00)
 number of electron     244.0000029 magnetization       2.0040617
 augmentation part       12.1084215 magnetization       1.4831841

 DIPCOR: dipole corrections for dipol
 direction  3 min pos     1,
 dipolmoment           0.000002      0.000049      0.157119 electrons x Angstroem
 Tr[quadrupol]     -6505.504565

 energy correction for charged system         0.000000 eV
 dipol+quadrupol energy correction            0.000706 eV
 added-field ion interaction          0.000000 eV  (added to PSCEN)


 Free energy of the ion-electron system (eV)
  ---------------------------------------------------
  alpha Z        PSCENC =       100.27179415
  Ewald energy   TEWEN  =     38905.10854387
  -Hartree energ DENC   =    -47253.84055537
  -exchange      EXHF   =       556.37238045
  -V(xc)+E(xc)   XCENC  =       591.95937461
  PAW double counting   =     26755.27461504   -26755.15866871
  entropy T*S    EENTRO =        -0.00085392
  eigenvalues    EBANDS =     -3223.92926573
  atomic energy  EATOM  =      9712.71844313
  ---------------------------------------------------
  free energy    TOTEN  =      -611.22544288 eV

  energy without entropy =     -611.22458896  energy(sigma->0) =     -611.22501592
  exchange ACFDT corr.  =        -0.00323221  see jH, gK, PRB 81, 115126


--------------------------------------------------------------------------------------------------------




--------------------------------------- Iteration      1(   6)  ---------------------------------------


    POTLOK:  cpu time    1.0491: real time    1.0523
    SETDIJ:  cpu time    1.2103: real time    1.2135
    TRIAL :  cpu time  192.3709: real time  193.1096
    CORREC:  cpu time    0.0014: real time    0.0014
    CHARGE:  cpu time    0.9003: real time    0.9026
    --------------------------------------------
      LOOP:  cpu time  195.5326: real time  196.2862

 eigenvalue-minimisations  :     0
 total energy-change (2. order) :-0.9367095E-01  (-0.7274783E-01)
 number of electron     244.0000029 magnetization       2.0015148
 augmentation part       12.1081488 magnetization       1.4773911

 DIPCOR: dipole corrections for dipol
 direction  3 min pos     1,
 dipolmoment           0.000002      0.000051      0.165952 electrons x Angstroem
 Tr[quadrupol]     -6505.582436

 energy correction for charged system         0.000000 eV
 dipol+quadrupol energy correction            0.000788 eV
 added-field ion interaction          0.000000 eV  (added to PSCEN)


 Free energy of the ion-electron system (eV)
  ---------------------------------------------------
  alpha Z        PSCENC =       100.27187576
  Ewald energy   TEWEN  =     38905.10854387
  -Hartree energ DENC   =    -47258.45651020
  -exchange      EXHF   =       556.71546905
  -V(xc)+E(xc)   XCENC  =       592.09217353
  PAW double counting   =     26817.21630561   -26817.04721833
  entropy T*S    EENTRO =        -0.00035106
  eigenvalues    EBANDS =     -3219.93734233
  atomic energy  EATOM  =      9712.71844313
  ---------------------------------------------------
  free energy    TOTEN  =      -611.31911383 eV

  energy without entropy =     -611.31876277  energy(sigma->0) =     -611.31893830
  exchange ACFDT corr.  =        -0.00112175  see jH, gK, PRB 81, 115126


--------------------------------------------------------------------------------------------------------




--------------------------------------- Iteration      1(   7)  ---------------------------------------


    POTLOK:  cpu time    1.0484: real time    1.0519
    SETDIJ:  cpu time    1.2049: real time    1.2080
    TRIAL :  cpu time  191.9592: real time  192.6580
    CORREC:  cpu time    0.0009: real time    0.0009
    CHARGE:  cpu time    0.9044: real time    0.9067
    --------------------------------------------
      LOOP:  cpu time  195.1191: real time  195.8321

 eigenvalue-minimisations  :     0
 total energy-change (2. order) :-0.5997091E-01  (-0.4583911E-01)
 number of electron     244.0000029 magnetization       2.0006318
 augmentation part       12.1129402 magnetization       1.4748302

 DIPCOR: dipole corrections for dipol
 direction  3 min pos     1,
 dipolmoment           0.000002      0.000054      0.173468 electrons x Angstroem
 Tr[quadrupol]     -6505.647388

 energy correction for charged system         0.000000 eV
 dipol+quadrupol energy correction            0.000861 eV
 added-field ion interaction          0.000000 eV  (added to PSCEN)


 Free energy of the ion-electron system (eV)
  ---------------------------------------------------
  alpha Z        PSCENC =       100.27194871
  Ewald energy   TEWEN  =     38905.10854387
  -Hartree energ DENC   =    -47262.87772608
  -exchange      EXHF   =       556.99548821
  -V(xc)+E(xc)   XCENC  =       592.22955924
  PAW double counting   =     26853.34728533   -26853.15324825
  entropy T*S    EENTRO =        -0.00015795
  eigenvalues    EBANDS =     -3216.01902784
  atomic energy  EATOM  =      9712.71844313
  ---------------------------------------------------
  free energy    TOTEN  =      -611.37908474 eV

  energy without entropy =     -611.37892679  energy(sigma->0) =     -611.37900576
  exchange ACFDT corr.  =        -0.00039594  see jH, gK, PRB 81, 115126


--------------------------------------------------------------------------------------------------------




--------------------------------------- Iteration      1(   8)  ---------------------------------------


    POTLOK:  cpu time    1.0478: real time    1.0561
    SETDIJ:  cpu time    1.2080: real time    1.2112
    TRIAL :  cpu time  191.7010: real time  192.4140
    CORREC:  cpu time    0.0013: real time    0.0013
    CHARGE:  cpu time    0.9006: real time    0.9029
    --------------------------------------------
      LOOP:  cpu time  194.8605: real time  195.5926

 eigenvalue-minimisations  :     0
 total energy-change (2. order) :-0.3903030E-01  (-0.3066011E-01)
 number of electron     244.0000029 magnetization       2.0003016
 augmentation part       12.1201359 magnetization       1.4752293

 DIPCOR: dipole corrections for dipol
 direction  3 min pos     1,
 dipolmoment           0.000002      0.000055      0.176842 electrons x Angstroem
 Tr[quadrupol]     -6505.687226

 energy correction for charged system         0.000000 eV
 dipol+quadrupol energy correction            0.000894 eV
 added-field ion interaction          0.000000 eV  (added to PSCEN)


 Free energy of the ion-electron system (eV)
  ---------------------------------------------------
  alpha Z        PSCENC =       100.27198251
  Ewald energy   TEWEN  =     38905.10854387
  -Hartree energ DENC   =    -47265.72711066
  -exchange      EXHF   =       557.18721729
  -V(xc)+E(xc)   XCENC  =       592.32318268
  PAW double counting   =     26873.03356637   -26872.88621737
  entropy T*S    EENTRO =        -0.00007995
  eigenvalues    EBANDS =     -3213.44756491
  atomic energy  EATOM  =      9712.71844313
  ---------------------------------------------------
  free energy    TOTEN  =      -611.41811503 eV

  energy without entropy =     -611.41803509  energy(sigma->0) =     -611.41807506
  exchange ACFDT corr.  =        -0.00015664  see jH, gK, PRB 81, 115126


--------------------------------------------------------------------------------------------------------




--------------------------------------- Iteration      1(   9)  ---------------------------------------


    POTLOK:  cpu time    1.0420: real time    1.0452
    SETDIJ:  cpu time    1.2114: real time    1.2145
    TRIAL :  cpu time  191.5279: real time  192.2258
    CORREC:  cpu time    0.0013: real time    0.0013
    CHARGE:  cpu time    0.8976: real time    0.8999
    --------------------------------------------
      LOOP:  cpu time  194.6821: real time  195.3925

 eigenvalue-minimisations  :     0
 total energy-change (2. order) :-0.2669585E-01  (-0.2105638E-01)
 number of electron     244.0000029 magnetization       2.0001606
 augmentation part       12.1259033 magnetization       1.4765281

 DIPCOR: dipole corrections for dipol
 direction  3 min pos     1,
 dipolmoment           0.000002      0.000055      0.177370 electrons x Angstroem
 Tr[quadrupol]     -6505.706565

 energy correction for charged system         0.000000 eV
 dipol+quadrupol energy correction            0.000900 eV
 added-field ion interaction          0.000000 eV  (added to PSCEN)


 Free energy of the ion-electron system (eV)
  ---------------------------------------------------
  alpha Z        PSCENC =       100.27198786
  Ewald energy   TEWEN  =     38905.10854387
  -Hartree energ DENC   =    -47267.03774157
  -exchange      EXHF   =       557.30481123
  -V(xc)+E(xc)   XCENC  =       592.37088529
  PAW double counting   =     26882.77506937   -26882.70068667
  entropy T*S    EENTRO =        -0.00004459
  eigenvalues    EBANDS =     -3212.25604344
  atomic energy  EATOM  =      9712.71844313
  ---------------------------------------------------
  free energy    TOTEN  =      -611.44481088 eV

  energy without entropy =     -611.44476630  energy(sigma->0) =     -611.44478859
  exchange ACFDT corr.  =        -0.00007128  see jH, gK, PRB 81, 115126


--------------------------------------------------------------------------------------------------------




--------------------------------------- Iteration      1(  10)  ---------------------------------------


    POTLOK:  cpu time    1.0379: real time    1.0414
    SETDIJ:  cpu time    1.1859: real time    1.1898
    TRIAL :  cpu time  192.5177: real time  193.2463
    CORREC:  cpu time    0.0013: real time    0.0013
    CHARGE:  cpu time    0.8971: real time    0.8995
    --------------------------------------------
      LOOP:  cpu time  195.6418: real time  196.3845

 eigenvalue-minimisations  :     0
 total energy-change (2. order) :-0.1855393E-01  (-0.1464776E-01)
 number of electron     244.0000029 magnetization       2.0000923
 augmentation part       12.1289301 magnetization       1.4772719

 DIPCOR: dipole corrections for dipol
 direction  3 min pos     1,
 dipolmoment           0.000002      0.000055      0.177643 electrons x Angstroem
 Tr[quadrupol]     -6505.714801

 energy correction for charged system         0.000000 eV
 dipol+quadrupol energy correction            0.000902 eV
 added-field ion interaction          0.000000 eV  (added to PSCEN)


 Free energy of the ion-electron system (eV)
  ---------------------------------------------------
  alpha Z        PSCENC =       100.27199063
  Ewald energy   TEWEN  =     38905.10854387
  -Hartree energ DENC   =    -47267.44888324
  -exchange      EXHF   =       557.37703839
  -V(xc)+E(xc)   XCENC  =       592.39126742
  PAW double counting   =     26886.95129368   -26886.93243210
  entropy T*S    EENTRO =        -0.00002665
  eigenvalues    EBANDS =     -3211.90058201
  atomic energy  EATOM  =      9712.71844313
  ---------------------------------------------------
  free energy    TOTEN  =      -611.46336481 eV

  energy without entropy =     -611.46333816  energy(sigma->0) =     -611.46335148
  exchange ACFDT corr.  =        -0.00003645  see jH, gK, PRB 81, 115126


--------------------------------------------------------------------------------------------------------




--------------------------------------- Iteration      1(  11)  ---------------------------------------


    POTLOK:  cpu time    1.0402: real time    1.0429
    SETDIJ:  cpu time    1.2098: real time    1.2129
    TRIAL :  cpu time  192.0236: real time  192.7346
    CORREC:  cpu time    0.0011: real time    0.0011
    CHARGE:  cpu time    0.9015: real time    0.9046
    --------------------------------------------
      LOOP:  cpu time  195.1775: real time  195.9013

 eigenvalue-minimisations  :     0
 total energy-change (2. order) :-0.1306379E-01  (-0.1043694E-01)
 number of electron     244.0000029 magnetization       2.0000566
 augmentation part       12.1302475 magnetization       1.4772351

 DIPCOR: dipole corrections for dipol
 direction  3 min pos     1,
 dipolmoment           0.000002      0.000055      0.179082 electrons x Angstroem
 Tr[quadrupol]     -6505.719602

 energy correction for charged system         0.000000 eV
 dipol+quadrupol energy correction            0.000917 eV
 added-field ion interaction          0.000000 eV  (added to PSCEN)


 Free energy of the ion-electron system (eV)
  ---------------------------------------------------
  alpha Z        PSCENC =       100.27200532
  Ewald energy   TEWEN  =     38905.10854387
  -Hartree energ DENC   =    -47267.57804560
  -exchange      EXHF   =       557.42796290
  -V(xc)+E(xc)   XCENC  =       592.40235145
  PAW double counting   =     26888.44285255   -26888.45199225
  entropy T*S    EENTRO =        -0.00001690
  eigenvalues    EBANDS =     -3211.81852330
  atomic energy  EATOM  =      9712.71844313
  ---------------------------------------------------
  free energy    TOTEN  =      -611.47642860 eV

  energy without entropy =     -611.47641170  energy(sigma->0) =     -611.47642015
  exchange ACFDT corr.  =        -0.00002033  see jH, gK, PRB 81, 115126


--------------------------------------------------------------------------------------------------------




--------------------------------------- Iteration      1(  12)  ---------------------------------------


    POTLOK:  cpu time    1.0352: real time    1.0390
    SETDIJ:  cpu time    1.2059: real time    1.2089
    TRIAL :  cpu time  191.7444: real time  192.4901
    CORREC:  cpu time    0.0013: real time    0.0013
    CHARGE:  cpu time    0.8938: real time    0.8961
    --------------------------------------------
      LOOP:  cpu time  194.8820: real time  195.6405

 eigenvalue-minimisations  :     0
 total energy-change (2. order) :-0.9394095E-02  (-0.7558441E-02)
 number of electron     244.0000029 magnetization       2.0000371
 augmentation part       12.1313123 magnetization       1.4769439

 DIPCOR: dipole corrections for dipol
 direction  3 min pos     1,
 dipolmoment           0.000002      0.000056      0.181283 electrons x Angstroem
 Tr[quadrupol]     -6505.724475

 energy correction for charged system         0.000000 eV
 dipol+quadrupol energy correction            0.000940 eV
 added-field ion interaction          0.000000 eV  (added to PSCEN)


 Free energy of the ion-electron system (eV)
  ---------------------------------------------------
  alpha Z        PSCENC =       100.27202799
  Ewald energy   TEWEN  =     38905.10854387
  -Hartree energ DENC   =    -47267.73147893
  -exchange      EXHF   =       557.46950810
  -V(xc)+E(xc)   XCENC  =       592.41253561
  PAW double counting   =     26889.07965458   -26889.10280120
  entropy T*S    EENTRO =        -0.00001139
  eigenvalues    EBANDS =     -3211.71223895
  atomic energy  EATOM  =      9712.71844313
  ---------------------------------------------------
  free energy    TOTEN  =      -611.48582270 eV

  energy without entropy =     -611.48581131  energy(sigma->0) =     -611.48581700
  exchange ACFDT corr.  =        -0.00001220  see jH, gK, PRB 81, 115126


--------------------------------------------------------------------------------------------------------




--------------------------------------- Iteration      1(  13)  ---------------------------------------


    POTLOK:  cpu time    1.0341: real time    1.0384
    SETDIJ:  cpu time    1.1735: real time    1.1766
    TRIAL :  cpu time  191.6970: real time  192.3835
    CORREC:  cpu time    0.0013: real time    0.0013
    CHARGE:  cpu time    0.8953: real time    0.8977
    --------------------------------------------
      LOOP:  cpu time  194.8025: real time  195.5029

 eigenvalue-minimisations  :     0
 total energy-change (2. order) :-0.6860014E-02  (-0.5567538E-02)
 number of electron     244.0000029 magnetization       2.0000260
 augmentation part       12.1327085 magnetization       1.4768691

 DIPCOR: dipole corrections for dipol
 direction  3 min pos     1,
 dipolmoment           0.000002      0.000057      0.183171 electrons x Angstroem
 Tr[quadrupol]     -6505.730051

 energy correction for charged system         0.000000 eV
 dipol+quadrupol energy correction            0.000959 eV
 added-field ion interaction          0.000000 eV  (added to PSCEN)


 Free energy of the ion-electron system (eV)
  ---------------------------------------------------
  alpha Z        PSCENC =       100.27204767
  Ewald energy   TEWEN  =     38905.10854387
  -Hartree energ DENC   =    -47267.96229860
  -exchange      EXHF   =       557.50508847
  -V(xc)+E(xc)   XCENC  =       592.42287920
  PAW double counting   =     26889.78655735   -26889.82388725
  entropy T*S    EENTRO =        -0.00000816
  eigenvalues    EBANDS =     -3211.52004515
  atomic energy  EATOM  =      9712.71844313
  ---------------------------------------------------
  free energy    TOTEN  =      -611.49268271 eV

  energy without entropy =     -611.49267455  energy(sigma->0) =     -611.49267863
  exchange ACFDT corr.  =        -0.00000597  see jH, gK, PRB 81, 115126


--------------------------------------------------------------------------------------------------------




--------------------------------------- Iteration      1(  14)  ---------------------------------------


    POTLOK:  cpu time    1.0276: real time    1.0314
    SETDIJ:  cpu time    1.2210: real time    1.2241
    TRIAL :  cpu time  190.8467: real time  191.5807
    CORREC:  cpu time    0.0012: real time    0.0012
    CHARGE:  cpu time    0.8961: real time    0.8985
    --------------------------------------------
      LOOP:  cpu time  193.9945: real time  194.7414

 eigenvalue-minimisations  :     0
 total energy-change (2. order) :-0.5101828E-02  (-0.4182443E-02)
 number of electron     244.0000029 magnetization       2.0000193
 augmentation part       12.1341875 magnetization       1.4770234

 DIPCOR: dipole corrections for dipol
 direction  3 min pos     1,
 dipolmoment           0.000002      0.000057      0.184232 electrons x Angstroem
 Tr[quadrupol]     -6505.735667

 energy correction for charged system         0.000000 eV
 dipol+quadrupol energy correction            0.000971 eV
 added-field ion interaction          0.000000 eV  (added to PSCEN)


 Free energy of the ion-electron system (eV)
  ---------------------------------------------------
  alpha Z        PSCENC =       100.27205883
  Ewald energy   TEWEN  =     38905.10854387
  -Hartree energ DENC   =    -47268.21159579
  -exchange      EXHF   =       557.53507804
  -V(xc)+E(xc)   XCENC  =       592.43198105
  PAW double counting   =     26890.89294191   -26890.94779367
  entropy T*S    EENTRO =        -0.00000618
  eigenvalues    EBANDS =     -3211.29743374
  atomic energy  EATOM  =      9712.71844313
  ---------------------------------------------------
  free energy    TOTEN  =      -611.49778454 eV

  energy without entropy =     -611.49777836  energy(sigma->0) =     -611.49778145
  exchange ACFDT corr.  =        -0.00000414  see jH, gK, PRB 81, 115126


--------------------------------------------------------------------------------------------------------




--------------------------------------- Iteration      1(  15)  ---------------------------------------


    POTLOK:  cpu time    1.0305: real time    1.0361
    SETDIJ:  cpu time    1.2254: real time    1.2285
    TRIAL :  cpu time  191.5315: real time  192.2423
    CORREC:  cpu time    0.0012: real time    0.0012
    CHARGE:  cpu time    0.9054: real time    0.9077
    --------------------------------------------
      LOOP:  cpu time  194.6949: real time  195.4212

 eigenvalue-minimisations  :     0
 total energy-change (2. order) :-0.3863401E-02  (-0.3194215E-02)
 number of electron     244.0000029 magnetization       2.0000150
 augmentation part       12.1353584 magnetization       1.4772048

 DIPCOR: dipole corrections for dipol
 direction  3 min pos     1,
 dipolmoment           0.000002      0.000057      0.184728 electrons x Angstroem
 Tr[quadrupol]     -6505.740671

 energy correction for charged system         0.000000 eV
 dipol+quadrupol energy correction            0.000976 eV
 added-field ion interaction          0.000000 eV  (added to PSCEN)


 Free energy of the ion-electron system (eV)
  ---------------------------------------------------
  alpha Z        PSCENC =       100.27206405
  Ewald energy   TEWEN  =     38905.10854387
  -Hartree energ DENC   =    -47268.42771269
  -exchange      EXHF   =       557.56004770
  -V(xc)+E(xc)   XCENC  =       592.43920421
  PAW double counting   =     26892.43448912   -26892.50615941
  entropy T*S    EENTRO =        -0.00000488
  eigenvalues    EBANDS =     -3211.10056174
  atomic energy  EATOM  =      9712.71844313
  ---------------------------------------------------
  free energy    TOTEN  =      -611.50164794 eV

  energy without entropy =     -611.50164306  energy(sigma->0) =     -611.50164550
  exchange ACFDT corr.  =        -0.00000305  see jH, gK, PRB 81, 115126


--------------------------------------------------------------------------------------------------------




--------------------------------------- Iteration      1(  16)  ---------------------------------------


    POTLOK:  cpu time    1.0320: real time    1.0389
    SETDIJ:  cpu time    1.2127: real time    1.2159
    TRIAL :  cpu time  193.0945: real time  193.8448
    CORREC:  cpu time    0.0012: real time    0.0012
    CHARGE:  cpu time    0.8965: real time    0.8989
    --------------------------------------------
      LOOP:  cpu time  196.2382: real time  197.0048

 eigenvalue-minimisations  :     0
 total energy-change (2. order) :-0.2969566E-02  (-0.2483888E-02)
 number of electron     244.0000029 magnetization       2.0000121
 augmentation part       12.1361380 magnetization       1.4772963

 DIPCOR: dipole corrections for dipol
 direction  3 min pos     1,
 dipolmoment           0.000002      0.000057      0.185147 electrons x Angstroem
 Tr[quadrupol]     -6505.744847

 energy correction for charged system         0.000000 eV
 dipol+quadrupol energy correction            0.000980 eV
 added-field ion interaction          0.000000 eV  (added to PSCEN)


 Free energy of the ion-electron system (eV)
  ---------------------------------------------------
  alpha Z        PSCENC =       100.27206849
  Ewald energy   TEWEN  =     38905.10854387
  -Hartree energ DENC   =    -47268.60190230
  -exchange      EXHF   =       557.58121754
  -V(xc)+E(xc)   XCENC  =       592.44507051
  PAW double counting   =     26894.23224439   -26894.31627887
  entropy T*S    EENTRO =        -0.00000399
  eigenvalues    EBANDS =     -3210.94401938
  atomic energy  EATOM  =      9712.71844313
  ---------------------------------------------------
  free energy    TOTEN  =      -611.50461751 eV

  energy without entropy =     -611.50461351  energy(sigma->0) =     -611.50461551
  exchange ACFDT corr.  =        -0.00000236  see jH, gK, PRB 81, 115126


--------------------------------------------------------------------------------------------------------




--------------------------------------- Iteration      1(  17)  ---------------------------------------


    POTLOK:  cpu time    1.0263: real time    1.0307
    SETDIJ:  cpu time    1.2065: real time    1.2095
    TRIAL :  cpu time  191.5486: real time  192.2522
    CORREC:  cpu time    0.0013: real time    0.0013
    CHARGE:  cpu time    0.8959: real time    0.8983
    --------------------------------------------
      LOOP:  cpu time  194.6803: real time  195.3976

 eigenvalue-minimisations  :     0
 total energy-change (2. order) :-0.2321871E-02  (-0.1969030E-02)
 number of electron     244.0000029 magnetization       2.0000101
 augmentation part       12.1366985 magnetization       1.4773382

 DIPCOR: dipole corrections for dipol
 direction  3 min pos     1,
 dipolmoment           0.000002      0.000057      0.185690 electrons x Angstroem
 Tr[quadrupol]     -6505.748208

 energy correction for charged system         0.000000 eV
 dipol+quadrupol energy correction            0.000986 eV
 added-field ion interaction          0.000000 eV  (added to PSCEN)


 Free energy of the ion-electron system (eV)
  ---------------------------------------------------
  alpha Z        PSCENC =       100.27207424
  Ewald energy   TEWEN  =     38905.10854387
  -Hartree energ DENC   =    -47268.74380170
  -exchange      EXHF   =       557.59954566
  -V(xc)+E(xc)   XCENC  =       592.45020934
  PAW double counting   =     26896.02373449   -26896.11580986
  entropy T*S    EENTRO =        -0.00000336
  eigenvalues    EBANDS =     -3210.81987455
  atomic energy  EATOM  =      9712.71844313
  ---------------------------------------------------
  free energy    TOTEN  =      -611.50693938 eV

  energy without entropy =     -611.50693602  energy(sigma->0) =     -611.50693770
  exchange ACFDT corr.  =        -0.00000189  see jH, gK, PRB 81, 115126


--------------------------------------------------------------------------------------------------------




[...]
  augment    41.18907    39.00747    41.40247     0.36619     0.03684    -0.43594
  Kinetic  3683.62867  3654.94102  4192.15853     2.84807    -0.94102     1.11853
  Fock     -308.03939  -305.99916  -281.51147    -0.25880     0.01295     0.36328
  -------------------------------------------------------------------------------------
  Total     -45.59440   -44.59416    -0.65038     0.15035    -0.02007     0.28390
  in kB     -22.99439   -22.48994    -0.32800     0.07582    -0.01012     0.14318
  external pressure =      -15.27 kB  Pullay stress =        0.00 kB


 VOLUME and BASIS-vectors are now :
 -----------------------------------------------------------------------------
  energy-cutoff  :      500.00
  volume of cell :     3176.88
      direct lattice vectors                 reciprocal lattice vectors
    13.017500000  0.000000000  0.000000000     0.076819666  0.000185293 -0.000000996
    -0.029585874 12.265864319  0.000000000     0.000000000  0.081527072 -0.000025188
     0.000243080  0.006147065 19.896399049     0.000000000  0.000000000  0.050260351

  length of vectors
    13.017500000 12.265900000 19.896400000     0.076819889  0.081527076  0.050260351


 FORCES acting on ions:
    Electron-Ion                     Ewald-Force                    Non-Local-Force
 -----------------------------------------------------------------------------------------------
   -.316E+01 0.485E+01 -.919E+00   0.314E+01 -.479E+01 0.964E+00   -.519E-01 -.861E-01 -.548E-01
   0.183E+01 0.103E+02 -.367E+01   -.164E+01 -.105E+02 0.368E+01   -.163E+00 0.253E+00 -.205E-02
   -.114E+02 0.267E+01 -.163E+01   0.115E+02 -.266E+01 0.160E+01   -.992E-01 -.431E-01 0.323E-01
   0.470E+01 0.143E+02 -.191E+01   -.483E+01 -.143E+02 0.188E+01   0.151E+00 -.705E-01 0.256E-01
   0.953E+01 0.487E+02 -.508E+01   -.107E+02 -.515E+02 0.512E+01   0.134E+01 0.318E+01 -.604E-01
   0.871E+01 0.147E+02 -.126E+02   -.897E+01 -.149E+02 0.127E+02   0.248E+00 0.239E+00 -.377E-01
   -.908E+00 0.143E+02 -.647E+01   0.660E+00 -.146E+02 0.644E+01   0.950E-01 0.244E+00 0.223E-01
   0.269E+02 -.134E+02 -.112E+02   -.284E+02 0.165E+02 0.115E+02   0.157E+01 -.313E+01 -.278E+00
   0.578E+01 -.312E+01 -.187E+02   -.580E+01 0.308E+01 0.187E+02   0.681E-01 0.418E-02 -.569E-02
   0.162E+02 -.217E+01 -.163E+02   -.167E+02 0.247E+01 0.163E+02   0.410E+00 -.240E+00 -.188E-01
   0.208E+02 -.254E+02 0.534E+01   -.218E+02 0.252E+02 -.531E+01   0.108E+01 0.170E+00 -.350E-01
   0.309E+01 -.159E+00 -.983E+00   -.490E+01 -.310E+01 0.125E+01   0.167E+01 0.313E+01 -.300E+00
   0.395E+01 -.149E+02 -.892E+01   -.434E+01 0.150E+02 0.886E+01   0.258E+00 -.157E+00 0.607E-01
   0.101E+02 -.442E+01 -.164E+02   -.104E+02 0.407E+01 0.165E+02   0.395E+00 0.295E+00 -.139E+00
   -.752E+01 -.367E+02 0.479E+01   0.608E+01 0.398E+02 -.440E+01   0.141E+01 -.315E+01 -.402E+00
   0.164E+00 -.630E+01 -.508E+01   0.123E-01 0.665E+01 0.511E+01   -.135E+00 -.325E+00 -.325E-01
   -.473E+01 -.103E+02 -.567E+01   0.452E+01 0.106E+02 0.574E+01   0.221E+00 -.261E+00 -.745E-01
   -.242E+01 0.196E+01 0.510E+01   0.211E+01 -.188E+01 -.514E+01   0.228E+00 -.483E-01 0.322E-01
   0.275E+01 0.721E+01 -.663E+01   -.270E+01 -.718E+01 0.656E+01   -.103E+00 0.507E-02 0.447E-01
   0.290E+02 0.315E+02 -.188E+01   -.314E+02 -.338E+02 0.187E+01   0.236E+01 0.256E+01 -.170E-01
   0.144E+02 0.749E+01 -.634E+01   -.147E+02 -.744E+01 0.640E+01   0.409E+00 -.166E+00 -.653E-01
   -.986E+01 0.108E+02 -.523E+01   0.106E+02 -.107E+02 0.528E+01   -.647E+00 -.699E-01 -.544E-01
   -.318E+02 0.115E+02 -.123E+01   0.348E+02 -.115E+02 0.126E+01   -.313E+01 0.573E-02 -.431E-01
   -.207E+02 0.173E+02 -.153E+01   0.224E+02 -.196E+02 0.156E+01   -.164E+01 0.235E+01 -.156E-01
   -.230E+01 -.119E+02 -.517E+01   0.539E+01 0.114E+02 0.549E+01   -.340E+01 0.276E+00 -.351E+00
   0.757E+01 -.182E+02 -.106E+02   -.536E+01 0.207E+02 0.111E+02   -.195E+01 -.238E+01 -.496E+00
   -.138E+02 0.123E+02 -.113E+02   0.172E+02 -.119E+02 0.118E+02   -.326E+01 -.255E+00 -.485E+00
   0.293E+02 -.771E+01 -.177E+01   -.316E+02 0.104E+02 0.189E+01   0.241E+01 -.277E+01 -.153E+00
   -.488E+01 0.191E+00 -.104E+02   0.565E+01 -.256E+00 0.105E+02   -.703E+00 -.172E-01 -.849E-01
   0.798E-01 0.142E+01 -.404E+01   -.313E-01 -.140E+01 0.405E+01   -.116E+00 -.177E-01 0.287E-02
   0.264E+00 0.716E+01 -.417E+01   0.177E+00 -.715E+01 0.417E+01   -.400E+00 0.306E-01 0.719E-02
   -.693E+01 0.233E+01 -.526E+01   0.714E+01 -.230E+01 0.529E+01   -.139E+00 -.284E-01 -.151E-01
   -.921E+01 0.349E+01 -.381E+01   0.935E+01 -.350E+01 0.381E+01   -.143E+00 0.303E-01 0.299E-02
   0.128E+01 0.850E+01 -.525E+01   -.116E+01 -.857E+01 0.525E+01   -.681E-01 0.814E-01 0.278E-02
   -.106E+02 0.704E+01 -.378E+01   0.108E+02 -.753E+01 0.379E+01   -.302E+00 0.372E+00 -.433E-02
   -.730E+01 0.898E-01 -.378E+01   0.743E+01 -.444E+00 0.378E+01   -.165E+00 0.272E+00 0.197E-02
   0.217E+01 0.537E+00 -.105E+02   -.226E+01 -.636E+00 0.105E+02   0.118E+00 0.481E-01 -.117E-01
   0.685E+00 0.378E+01 -.122E+02   -.458E+00 -.386E+01 0.122E+02   -.224E+00 0.148E+00 -.199E-01
   -.287E+01 -.523E+01 -.996E+01   0.369E+01 0.521E+01 0.100E+02   -.580E+00 0.131E-01 -.574E-01
   -.548E+01 -.225E+01 -.866E+01   0.585E+01 0.222E+01 0.868E+01   -.368E+00 0.150E+00 -.161E-01
   0.550E+01 -.256E+01 -.154E+02   -.548E+01 0.257E+01 0.154E+02   -.104E+00 -.109E-01 -.268E-01
   0.134E+01 -.674E+01 -.114E+02   -.121E+01 0.682E+01 0.114E+02   -.188E+00 -.151E+00 0.979E-04
   -.383E+01 -.783E+01 -.111E+02   0.405E+01 0.833E+01 0.111E+02   -.420E+00 -.368E+00 -.855E-02
   -.129E+01 -.284E+01 -.897E+01   0.171E+01 0.282E+01 0.892E+01   -.336E+00 -.106E+00 0.563E-01
   0.218E+01 -.142E+01 -.102E+02   -.219E+01 0.146E+01 0.102E+02   0.140E+00 -.917E-02 -.264E-01
   0.173E+01 -.660E+01 -.783E+01   -.158E+01 0.668E+01 0.783E+01   -.111E+00 -.532E-01 0.855E-02
   0.329E+01 -.115E+01 -.790E+01   -.280E+01 0.119E+01 0.789E+01   -.439E+00 -.555E-01 0.160E-01
   -.321E+01 0.236E+01 -.953E+01   0.340E+01 -.199E+01 0.955E+01   -.200E+00 -.308E+00 -.105E-01
   -.925E+01 -.340E+00 -.574E+01   0.934E+01 0.378E+00 0.577E+01   -.104E+00 -.625E-01 -.224E-01
   -.237E+02 0.344E+02 -.595E+01   0.437E+02 -.330E+02 0.555E+01   -.194E+02 -.165E+01 0.424E+00
   -.881E+02 -.214E+02 0.452E+02   0.109E+03 0.203E+02 -.481E+02   -.198E+02 0.108E+01 0.270E+01
   0.340E+02 0.135E+01 0.720E+01   -.445E+02 0.162E+02 -.808E+01   0.998E+01 -.171E+02 0.894E+00
   0.363E+02 -.328E+02 -.229E+01   -.577E+02 0.324E+02 0.184E+01   0.207E+02 0.737E+00 0.409E+00
   -.920E+02 -.667E+02 0.625E+02   0.112E+03 0.667E+02 -.647E+02   -.192E+02 0.622E+00 0.190E+01
   0.842E+02 -.488E+01 0.127E+02   -.105E+03 0.472E+01 -.136E+02   0.197E+02 -.307E-01 0.953E+00
   0.515E+02 0.662E+02 0.210E+01   -.630E+02 -.846E+02 -.244E+01   0.108E+02 0.175E+02 0.242E+00
   -.278E+02 -.991E+01 -.601E-01   0.268E+02 0.119E+02 -.547E+00   0.126E+01 -.218E+01 0.567E+00
   -.141E+02 -.220E+02 0.200E+03   0.127E+02 0.198E+02 -.195E+03   0.128E+01 0.226E+01 -.459E+01
 -----------------------------------------------------------------------------------------------
   -.182E+00 -.851E+00 -.599E+00   -.171E-12 -.782E-13 -.568E-13   0.181E+00 0.821E+00 0.388E+00
 
 
 POSITION                                       TOTAL-FORCE (eV/Angst)
 -----------------------------------------------------------------------------------
      2.96591      0.01380      9.93953        -0.079873     -0.028813     -0.012881
      0.75622      1.23154      9.97697         0.026993      0.081932      0.006239
      1.50564      0.00951      9.95952         0.016057     -0.039522     -0.001410
      3.67705      1.29458      9.94660         0.027472     -0.070129     -0.004617
      2.89922      2.53167      9.96063         0.203972      0.580426     -0.029534
      0.65758      3.66876     10.00701         0.004897      0.030659     -0.015723
      1.44768      2.47329      9.98285        -0.158345     -0.081228     -0.003007
      2.71517      4.91377      9.95185         0.165660     -0.198770     -0.008734
      0.60985      6.13773     10.01521         0.056146     -0.030167     -0.017793
      1.31885      4.91025     10.00230        -0.030711      0.040988     -0.015569
      3.40433      6.13625      9.85891         0.243459      0.038389     -0.013359
      2.71121      7.36964      9.88432        -0.046514      0.031601     -0.050662
      0.64184      8.60612      9.97925        -0.115832     -0.055877     -0.001348
      1.31490      7.36705      9.97930         0.118360     -0.031446     -0.036613
      2.86415      9.76304      9.88095         0.046657     -0.249512     -0.035316
      0.72840     11.05332      9.96941         0.043558      0.000380     -0.001180
      1.42155      9.81163      9.95097         0.012689      0.060226     -0.015875
      3.64467     10.99833      9.90241        -0.072317      0.031772      0.002205
      7.23609     12.26585      9.96596        -0.049453      0.045918     -0.015250
      5.13754      1.28966      9.94035         0.177420      0.463256     -0.020549
      5.82823      0.01356      9.94911         0.087744     -0.136434     -0.008860
      7.99492      1.22484      9.96838         0.046849     -0.001323     -0.013337
      7.27022      2.44467      9.94608        -0.268562     -0.039878     -0.012884
      7.98342      3.69698      9.94907         0.026857      0.194212      0.013606
      7.92386      6.10947      9.93305        -0.492837     -0.227682     -0.044581
      7.96619      8.55711      9.94470         0.162831     -0.002389     -0.052173
      7.23985      9.81888      9.94434        -0.088068      0.101929     -0.005258
      5.10815     11.00682      9.91441         0.224931     -0.190566     -0.044790
      7.96819     11.04005      9.97555         0.023925     -0.086199     -0.009495
     11.59893      0.00358      9.98597        -0.064351      0.001544      0.007227
      9.42884      1.21900      9.97959         0.029244      0.056257      0.001353
     10.13103     12.26674      9.98664         0.058102     -0.006719      0.007714
     12.32357      1.22771      9.98568        -0.025511      0.020535      0.004831
     11.56645      2.43869      9.99362         0.058932      0.021269      0.005854
      9.39900      3.66730      9.97529        -0.159997     -0.093333      0.007056
     10.13434      2.44019      9.98292        -0.049891     -0.076156      0.005228
     12.25545      3.67028     10.01039         0.033996     -0.058008     -0.001531
     11.52082      4.89991     10.01600        -0.008176      0.077414     -0.005159
      9.36679      6.12251      9.98286         0.211026     -0.004244     -0.004720
     10.10063      4.90144      9.99514        -0.019127      0.122424      0.006315
     12.21601      6.13534     10.02316        -0.080611     -0.000078     -0.009532
     11.50809      7.36649     10.01115        -0.064003     -0.085462      0.001887
      9.37995      8.59452      9.98638        -0.224845      0.106031     -0.027614
     10.08672      7.35629      9.99432         0.064947     -0.129030      0.006850
     12.24014      8.59990     10.00149         0.131730      0.038550     -0.006456
     11.54548      9.83167      9.99677         0.032615      0.011499      0.000404
      9.40288     11.04610      9.98869         0.037189     -0.018539      0.005068
     10.11305      9.82564      9.99600        -0.034020      0.054381      0.008317
     12.29619     11.04764      9.98660        -0.031572     -0.023146      0.001250
      3.50907      3.77542      9.94333        -1.144637     -0.446684      0.066693
      3.47436      8.52347      9.77666        -0.544456      0.082626      0.107682
      5.88325      2.47270      9.92125         0.334791     -1.019939      0.090936
      7.24346      4.89114      9.92836         1.104349      0.419794      0.001286
      4.75687      6.09625      9.72860        -0.564976      0.681943     -0.197885
      7.26175      7.33688      9.86601         0.582460     -0.195555      0.111550
      5.85194      9.83022      9.88237         0.292404      0.620262     -0.071620
      5.34507      4.33377      9.90012         0.002401     -0.187242     -0.049782
      5.37285      7.88075      9.39147        -0.271976     -0.202146      0.395544
 -----------------------------------------------------------------------------------
    total drift:                               -0.006141     -0.005112     -0.011402


--------------------------------------------------------------------------------------------------------



  FREE ENERGIE OF THE ION-ELECTRON SYSTEM (eV)
  ---------------------------------------------------
  free  energy   TOTEN  =      -611.52198634 eV

  energy  without entropy=     -611.52198550  energy(sigma->0) =     -611.52198592
 


--------------------------------------------------------------------------------------------------------


    POTLOK:  cpu time    2.2157: real time    2.2226


--------------------------------------------------------------------------------------------------------


 stress matrix after NEB project (eV)
    -45.59440      0.15049      0.28390
      0.15035    -44.59416     -0.01759
      0.28259     -0.02007     -0.65038
  FORCES: max atom, RMS     1.230516    0.375133
  FORCE total and by dimension    2.856927    1.144637
  Stress total and by dimension   63.781798   45.594404
 writing wavefunctions
     LOOP+:  cpu time10792.0684: real time10838.6702
    4ORBIT:  cpu time    0.0000: real time    0.0000
 


 total charge     
 
# of ion       s       p       d       tot
------------------------------------------
    1        0.850   1.687   0.000   2.536
    2        0.863   1.750   0.000   2.613
    3        0.855   1.752   0.000   2.608
    4        0.842   1.729   0.000   2.571
    5        0.850   1.690   0.000   2.540
    6        0.872   1.779   0.000   2.651
    7        0.861   1.767   0.000   2.628
    8        0.875   1.778   0.000   2.653
    9        0.870   1.803   0.000   2.673
   10        0.877   1.820   0.000   2.697
   11        0.879   1.792   0.000   2.670
   12        0.871   1.772   0.000   2.643
   13        0.871   1.775   0.000   2.646
   14        0.876   1.816   0.000   2.692
   15        0.852   1.690   0.000   2.542
   16        0.863   1.750   0.000   2.613
   17        0.861   1.770   0.000   2.631
   18        0.842   1.728   0.000   2.570
   19        0.869   1.750   0.000   2.619
   20        0.847   1.681   0.000   2.528
   21        0.857   1.750   0.000   2.607
   22        0.866   1.784   0.000   2.650
   23        0.863   1.734   0.000   2.596
   24        0.857   1.734   0.000   2.590
   25        0.843   1.663   0.000   2.506
   26        0.852   1.722   0.000   2.573
   27        0.857   1.722   0.000   2.579
   28        0.849   1.679   0.000   2.528
   29        0.865   1.779   0.000   2.643
   30        0.867   1.767   0.000   2.635
   31        0.868   1.784   0.000   2.652
   32        0.865   1.775   0.000   2.640
   33        0.862   1.763   0.000   2.625
   34        0.869   1.774   0.000   2.643
   35        0.869   1.784   0.000   2.653
   36        0.866   1.782   0.000   2.648
   37        0.868   1.791   0.000   2.659
   38        0.868   1.782   0.000   2.650
   39        0.864   1.771   0.000   2.635
   40        0.870   1.781   0.000   2.650
   41        0.874   1.788   0.000   2.662
   42        0.867   1.778   0.000   2.645
   43        0.868   1.778   0.000   2.646
   44        0.867   1.774   0.000   2.642
   45        0.867   1.789   0.000   2.656
   46        0.869   1.770   0.000   2.639
   47        0.868   1.782   0.000   2.650
   48        0.865   1.779   0.000   2.644
   49        0.862   1.763   0.000   2.626
   50        1.232   2.659   0.000   3.891
   51        1.233   2.670   0.000   3.903
   52        1.229   2.652   0.000   3.881
   53        1.224   2.640   0.000   3.864
   54        1.256   2.585   0.000   3.841
   55        1.224   2.664   0.000   3.888
   56        1.230   2.662   0.000   3.892
   57        0.443   0.600   6.290   7.334
   58        0.482   0.715   3.436   4.632
--------------------------------------------------
tot         51.851 106.045   9.726 167.621
 


 magnetization (x)
 
# of ion       s       p       d       tot
------------------------------------------
    1        0.000   0.001   0.000   0.001
    2        0.000  -0.001   0.000  -0.001
    3       -0.000  -0.007   0.000  -0.008
    4        0.000   0.001   0.000   0.001
    5       -0.000  -0.005   0.000  -0.005
    6       -0.000  -0.003   0.000  -0.003
    7        0.000   0.002   0.000   0.002
    8       -0.002  -0.024   0.000  -0.026
    9       -0.001  -0.018   0.000  -0.019
   10        0.001   0.009   0.000   0.010
   11        0.006   0.038   0.000   0.044
   12       -0.000  -0.016   0.000  -0.017
   13        0.000   0.004   0.000   0.004
   14        0.001   0.007   0.000   0.008
   15        0.001   0.010   0.000   0.011
   16        0.000  -0.001   0.000  -0.001
   17       -0.001  -0.005   0.000  -0.005
   18       -0.000  -0.003   0.000  -0.004
   19       -0.000  -0.002   0.000  -0.002
   20        0.000   0.002   0.000   0.002
   21       -0.000  -0.005   0.000  -0.005
   22       -0.000  -0.001   0.000  -0.001
   23        0.000   0.002   0.000   0.002
   24       -0.000  -0.007   0.000  -0.008
   25        0.001   0.001   0.000   0.002
   26        0.002  -0.003   0.000  -0.001
   27        0.002   0.000   0.000   0.002
   28        0.001   0.006   0.000   0.007
   29        0.000   0.001   0.000   0.001
   30        0.000   0.001   0.000   0.001
   31        0.000   0.001   0.000   0.001
   32       -0.000  -0.002   0.000  -0.002
   33        0.000   0.000   0.000   0.000
   34       -0.000  -0.001   0.000  -0.001
   35        0.000   0.001   0.000   0.001
   36       -0.000  -0.001   0.000  -0.001
   37       -0.000  -0.002   0.000  -0.002
   38       -0.000  -0.004   0.000  -0.005
   39       -0.001  -0.008   0.000  -0.008
   40       -0.000  -0.002   0.000  -0.002
   41        0.000   0.004   0.000   0.004
   42       -0.000  -0.004   0.000  -0.004
   43        0.001   0.003   0.000   0.003
   44       -0.000  -0.002   0.000  -0.002
   45       -0.000  -0.003   0.000  -0.003
   46        0.000   0.001   0.000   0.002
   47        0.000   0.001   0.000   0.001
   48       -0.000  -0.001   0.000  -0.001
   49        0.000   0.000   0.000   0.000
   50        0.001   0.009   0.000   0.009
   51       -0.005  -0.029   0.000  -0.034
   52       -0.000  -0.009   0.000  -0.009
   53        0.001   0.002   0.000   0.002
   54       -0.010  -0.157   0.000  -0.168
   55       -0.006  -0.039   0.000  -0.044
   56       -0.004  -0.032   0.000  -0.036
   57       -0.019  -0.005   0.010  -0.013
   58        0.069   0.028   2.183   2.280
--------------------------------------------------
tot          0.036  -0.265   2.193   1.964
 

 total amount of memory used by VASP MPI-rank0   163056. kBytes
=======================================================================

   base      :      30000. kBytes
   nonl-proj :       4259. kBytes
   fftplans  :      11188. kBytes
   grid      :      29312. kBytes
   one-center:         62. kBytes
   HF        :         23. kBytes
   nonlr-proj:      26094. kBytes
   wavefun   :      62118. kBytes
 
  
  
 General timing and accounting informations for this job:
 ========================================================
  
                  Total CPU time used (sec):    10834.976
                            User time (sec):    10802.562
                          System time (sec):       32.413
                         Elapsed time (sec):    10888.437
  
                   Maximum memory used (kb):      389608.
                   Average memory used (kb):           0.
  
                          Minor page faults:       845822
                          Major page faults:          186
                 Voluntary context switches:       148442
