 vasp.5.4.4.18Apr17-6-g9f103f2a35 (build Feb 25 2019 10:51:38) complex          
  
 executed on             LinuxIFC date 2021.03.09  15:46:20
 running on   80 total cores
 distrk:  each k-point on   40 cores,    2 groups
 distr:  one band on NCORES_PER_BAND=  40 cores,    1 groups


--------------------------------------------------------------------------------------------------------


 INCAR:
 POTCAR:    PAW_PBE C 08Apr2002                   
 POTCAR:    PAW_PBE N 08Apr2002                   
 POTCAR:    PAW_PBE Ni 02Aug2007                  
 POTCAR:    PAW_PBE Fe 06Sep2000                  

 ----------------------------------------------------------------------------- 
|                                                                             |
|           W    W    AA    RRRRR   N    N  II  N    N   GGGG   !!!           |
|           W    W   A  A   R    R  NN   N  II  NN   N  G    G  !!!           |
|           W    W  A    A  R    R  N N  N  II  N N  N  G       !!!           |
|           W WW W  AAAAAA  RRRRR   N  N N  II  N  N N  G  GGG   !            |
|           WW  WW  A    A  R   R   N   NN  II  N   NN  G    G                |
|           W    W  A    A  R    R  N    N  II  N    N   GGGG   !!!           |
|                                                                             |
|      For optimal performance we recommend to set                            |
|        NCORE= 4 - approx SQRT( number of cores)                             |
|      NCORE specifies how many cores store one orbital (NPAR=cpu/NCORE).     |
|      This setting can  greatly improve the performance of VASP for DFT.     |
|      The default,   NCORE=1            might be grossly inefficient         |
|      on modern multi-core architectures or massively parallel machines.     |
|      Do your own testing !!!!                                               |
|      Unfortunately you need to use the default for GW and RPA calculations. |
|      (for HF NCORE is supported but not extensively tested yet)             |
|                                                                             |
 ----------------------------------------------------------------------------- 


 ----------------------------------------------------------------------------- 
|                                                                             |
|           W    W    AA    RRRRR   N    N  II  N    N   GGGG   !!!           |
|           W    W   A  A   R    R  NN   N  II  NN   N  G    G  !!!           |
|           W    W  A    A  R    R  N N  N  II  N N  N  G       !!!           |
|           W WW W  AAAAAA  RRRRR   N  N N  II  N  N N  G  GGG   !            |
|           WW  WW  A    A  R   R   N   NN  II  N   NN  G    G                |
|           W    W  A    A  R    R  N    N  II  N    N   GGGG   !!!           |
|                                                                             |
|      You have enabled k-point parallelism (KPAR>1).                         |
|      This developmental code was originally  written by Paul Kent at ORNL,  |
|      and carefully double checked in Vienna.                                |
|      GW as well as linear response parallelism added by Martijn Marsman     |
|      and Georg Kresse.                                                      |
|      Carefully verify results versus KPAR=1.                                |
|      Report problems to Paul Kent and Vienna.                               |
|                                                                             |
 ----------------------------------------------------------------------------- 

 POTCAR:    PAW_PBE C 08Apr2002                   
   VRHFIN =C: s2p2                                                              
   LEXCH  = PE                                                                  
   EATOM  =   147.1560 eV,   10.8157 Ry                                         
                                                                                
   TITEL  = PAW_PBE C 08Apr2002                                                 
   LULTRA =        F    use ultrasoft PP ?                                      
   IUNSCR =        1    unscreen: 0-lin 1-nonlin 2-no                           
   RPACOR =    1.200    partial core radius                                     
   POMASS =   12.011; ZVAL   =    4.000    mass and valenz                      
   RCORE  =    1.500    outmost cutoff radius                                   
   RWIGS  =    1.630; RWIGS  =    0.863    wigner-seitz radius (au A)           
   ENMAX  =  400.000; ENMIN  =  300.000 eV                                      
   ICORE  =        2    local potential                                         
   LCOR   =        T    correct aug charges                                     
   LPAW   =        T    paw PP                                                  
   EAUG   =  644.873                                                            
   DEXC   =    0.000                                                            
   RMAX   =    1.529    core radius for proj-oper                               
   RAUG   =    1.300    factor for augmentation sphere                          
   RDEP   =    1.501    radius for radial grids                                 
   RDEPT  =    1.300    core radius for aug-charge                              
                                                                                
   Atomic configuration                                                         
    4 entries                                                                   
     n  l   j            E        occ.                                          
     1  0  0.50      -273.3789   2.0000                                         
     2  0  0.50       -13.7508   2.0000                                         
     2  1  0.50        -5.2854   2.0000                                         
     3  2  1.50        -5.4423   0.0000                                         
   Description                                                                  
     l       E           TYP  RCUT    TYP  RCUT                                 
     0    -13.7508458     23  1.200                                             
     0     -8.2022199     23  1.200                                             
     1     -5.2854383     23  1.500                                             
     1     34.0145650     23  1.500                                             
     2     -5.4423304      7  1.500                                             
  local pseudopotential read in
  partial core-charges read in
  partial kinetic energy density read in
  atomic valenz-charges read in
  non local Contribution for L=           0  read in
    real space projection operators read in
  non local Contribution for L=           0  read in
    real space projection operators read in
  non local Contribution for L=           1  read in
    real space projection operators read in
  non local Contribution for L=           1  read in
    real space projection operators read in
    PAW grid and wavefunctions read in
 
   number of l-projection  operators is LMAX  =           4
   number of lm-projection operators is LMMAX =           8
 
 POTCAR:    PAW_PBE N 08Apr2002                   
   VRHFIN =N: s2p3                                                              
   LEXCH  = PE                                                                  
   EATOM  =   264.5486 eV,   19.4438 Ry                                         
                                                                                
   TITEL  = PAW_PBE N 08Apr2002                                                 
   LULTRA =        F    use ultrasoft PP ?                                      
   IUNSCR =        1    unscreen: 0-lin 1-nonlin 2-no                           
   RPACOR =    1.200    partial core radius                                     
   POMASS =   14.001; ZVAL   =    5.000    mass and valenz                      
   RCORE  =    1.500    outmost cutoff radius                                   
   RWIGS  =    1.400; RWIGS  =    0.741    wigner-seitz radius (au A)           
   ENMAX  =  400.000; ENMIN  =  300.000 eV                                      
   ICORE  =        2    local potential                                         
   LCOR   =        T    correct aug charges                                     
   LPAW   =        T    paw PP                                                  
   EAUG   =  627.112                                                            
   DEXC   =    0.000                                                            
   RMAX   =    1.529    core radius for proj-oper                               
   RAUG   =    1.300    factor for augmentation sphere                          
   RDEP   =    1.514    radius for radial grids                                 
   RDEPT  =    1.338    core radius for aug-charge                              
                                                                                
   Atomic configuration                                                         
    4 entries                                                                   
     n  l   j            E        occ.                                          
     1  0  0.50      -384.7179   2.0000                                         
     2  0  0.50       -18.5828   2.0000                                         
     2  1  0.50        -7.0898   3.0000                                         
     3  2  1.50        -6.8029   0.0000                                         
   Description                                                                  
     l       E           TYP  RCUT    TYP  RCUT                                 
     0    -18.5828119     23  1.200                                             
     0    -13.5018863     23  1.200                                             
     1     -7.0897853     23  1.500                                             
     1      9.5240782     23  1.500                                             
     2     -6.8029130      7  1.500                                             
  local pseudopotential read in
  partial core-charges read in
  partial kinetic energy density read in
  atomic valenz-charges read in
  non local Contribution for L=           0  read in
    real space projection operators read in
  non local Contribution for L=           0  read in
    real space projection operators read in
  non local Contribution for L=           1  read in
    real space projection operators read in
  non local Contribution for L=           1  read in
    real space projection operators read in
    PAW grid and wavefunctions read in
 
   number of l-projection  operators is LMAX  =           4
   number of lm-projection operators is LMMAX =           8
 
 POTCAR:    PAW_PBE Ni 02Aug2007                  
   VRHFIN =Ni:                                                                  
   LEXCH  = PE                                                                  
   EATOM  =  1077.6739 eV,   79.2068 Ry                                         
                                                                                
   TITEL  = PAW_PBE Ni 02Aug2007                                                
   LULTRA =        F    use ultrasoft PP ?                                      
   IUNSCR =        1    unscreen: 0-lin 1-nonlin 2-no                           
   RPACOR =    2.000    partial core radius                                     
   POMASS =   58.690; ZVAL   =   10.000    mass and valenz                      
   RCORE  =    2.300    outmost cutoff radius                                   
   RWIGS  =    2.430; RWIGS  =    1.286    wigner-seitz radius (au A)           
   ENMAX  =  269.532; ENMIN  =  202.149 eV                                      
   RCLOC  =    1.201    cutoff for local pot                                    
   LCOR   =        T    correct aug charges                                     
   LPAW   =        T    paw PP                                                  
   EAUG   =  544.565                                                            
   DEXC   =    0.000                                                            
   RMAX   =    2.357    core radius for proj-oper                               
   RAUG   =    1.300    factor for augmentation sphere                          
   RDEP   =    2.390    radius for radial grids                                 
   RDEPT  =    1.838    core radius for aug-charge                              
                                                                                
   Atomic configuration                                                         
    9 entries                                                                   
     n  l   j            E        occ.                                          
     1  0  0.50     -8206.4253   2.0000                                         
     2  0  0.50      -976.1748   2.0000                                         
     2  1  1.50      -839.0571   6.0000                                         
     3  0  0.50      -105.9991   2.0000                                         
     3  1  1.50       -66.4603   6.0000                                         
     3  2  2.50        -4.6458   9.0000                                         
     4  0  0.50        -4.4926   1.0000                                         
     4  1  1.50        -4.0817   0.0000                                         
     4  3  2.50        -1.3606   0.0000                                         
   Description                                                                  
     l       E           TYP  RCUT    TYP  RCUT                                 
     2     -4.6457903     23  2.300                                             
     2     -6.0063729     23  2.300                                             
     0     -4.4925590     23  2.300                                             
     0      5.0102601     23  2.300                                             
     1     -2.7211652     23  2.300                                             
     1     16.5183231     23  2.300                                             
  local pseudopotential read in
  partial core-charges read in
  partial kinetic energy density read in
  atomic valenz-charges read in
  non local Contribution for L=           2  read in
    real space projection operators read in
  non local Contribution for L=           2  read in
    real space projection operators read in
  non local Contribution for L=           0  read in
    real space projection operators read in
  non local Contribution for L=           0  read in
    real space projection operators read in
  non local Contribution for L=           1  read in
    real space projection operators read in
  non local Contribution for L=           1  read in
    real space projection operators read in
    PAW grid and wavefunctions read in
 
   number of l-projection  operators is LMAX  =           6
   number of lm-projection operators is LMMAX =          18
 
 POTCAR:    PAW_PBE Fe 06Sep2000                  
   VRHFIN =Fe:  d7 s1                                                           
   LEXCH  = PE                                                                  
   EATOM  =   594.3153 eV,   43.6809 Ry                                         
                                                                                
   TITEL  = PAW_PBE Fe 06Sep2000                                                
   LULTRA =        F    use ultrasoft PP ?                                      
   IUNSCR =        1    unscreen: 0-lin 1-nonlin 2-no                           
   RPACOR =    2.000    partial core radius                                     
   POMASS =   55.847; ZVAL   =    8.000    mass and valenz                      
   RCORE  =    2.300    outmost cutoff radius                                   
   RWIGS  =    2.460; RWIGS  =    1.302    wigner-seitz radius (au A)           
   ENMAX  =  267.882; ENMIN  =  200.911 eV                                      
   RCLOC  =    1.701    cutoff for local pot                                    
   LCOR   =        T    correct aug charges                                     
   LPAW   =        T    paw PP                                                  
   EAUG   =  511.368                                                            
   DEXC   =    0.000                                                            
   RMAX   =    2.356    core radius for proj-oper                               
   RAUG   =    1.300    factor for augmentation sphere                          
   RDEP   =    2.442    radius for radial grids                                 
   RDEPT  =    1.890    core radius for aug-charge                              
                                                                                
   Atomic configuration                                                         
    9 entries                                                                   
     n  l   j            E        occ.                                          
     1  0  0.50     -6993.8440   2.0000                                         
     2  0  0.50      -814.6047   2.0000                                         
     2  1  1.50      -693.3689   6.0000                                         
     3  0  0.50       -89.4732   2.0000                                         
     3  1  1.50       -55.6373   6.0000                                         
     3  2  2.50        -3.8151   7.0000                                         
     4  0  0.50        -4.2551   1.0000                                         
     4  1  1.50        -3.4015   0.0000                                         
     4  3  2.50        -1.3606   0.0000                                         
   Description                                                                  
     l       E           TYP  RCUT    TYP  RCUT                                 
     2     -3.8151135     23  2.300                                             
     2     -5.1756961     23  2.300                                             
     0     -4.2550963     23  2.300                                             
     0      7.2035603     23  2.300                                             
     1     -2.7211652     23  2.300                                             
     1     18.4316424     23  2.300                                             
  local pseudopotential read in
  partial core-charges read in
  partial kinetic energy density read in
  atomic valenz-charges read in
  non local Contribution for L=           2  read in
    real space projection operators read in
  non local Contribution for L=           2  read in
    real space projection operators read in
  non local Contribution for L=           0  read in
    real space projection operators read in
  non local Contribution for L=           0  read in
    real space projection operators read in
  non local Contribution for L=           1  read in
    real space projection operators read in
  non local Contribution for L=           1  read in
    real space projection operators read in
    PAW grid and wavefunctions read in
 
   number of l-projection  operators is LMAX  =           6
   number of lm-projection operators is LMMAX =          18
 

 ----------------------------------------------------------------------------- 
|                                                                             |
|  ADVICE TO THIS USER RUNNING 'VASP/VAMP'   (HEAR YOUR MASTER'S VOICE ...):  |
|                                                                             |
|      You have a (more or less) 'large supercell' and for larger cells       |
|      it might be more efficient to use real space projection opertators     |
|      So try LREAL= Auto  in the INCAR   file.                               |
|      Mind:          For very  accurate calculation you might also keep the  |
|      reciprocal projection scheme          (i.e. LREAL=.FALSE.)             |
|                                                                             |
 ----------------------------------------------------------------------------- 

  PAW_PBE C 08Apr2002                   :
 energy of atom  1       EATOM= -147.1560
 kinetic energy error for atom=    0.0076 (will be added to EATOM!!)
  PAW_PBE N 08Apr2002                   :
 energy of atom  2       EATOM= -264.5486
 kinetic energy error for atom=    0.0138 (will be added to EATOM!!)
  PAW_PBE Ni 02Aug2007                  :
 energy of atom  3       EATOM=-1077.6739
 kinetic energy error for atom=    0.0030 (will be added to EATOM!!)
  PAW_PBE Fe 06Sep2000                  :
 energy of atom  4       EATOM= -594.3153
 kinetic energy error for atom=    0.0026 (will be added to EATOM!!)
 
 
 POSCAR:  C  N Ni Fe                             
  positions in cartesian coordinates
  No initial velocities read in
 exchange correlation table for  LEXCH =        8
   RHO(1)=    0.500       N(1)  =     2000
   RHO(2)=  100.500       N(2)  =     4000

 VTST: version 3.2, (02/03/18)

 CHAIN: initializing optimizer
 
 OPT: Using VASP Conjugate-Gradient optimizer
 CHAIN: Read ICHAIN            0
 
 POSCAR:  C  N Ni Fe                             
  positions in cartesian coordinates
  No initial velocities read in
 


--------------------------------------------------------------------------------------------------------


 ion  position               nearest neighbor table
   1  0.222  0.001  0.492-   3 1.43  19 1.43   4 1.44
   2  0.057  0.101  0.487-   3 1.43  37 1.43   7 1.44
   3  0.111  0.000  0.489-   1 1.43   2 1.43  17 1.44
   4  0.278  0.102  0.492-  21 1.42   5 1.44   1 1.44
   5  0.224  0.204  0.496-   7 1.44   4 1.44   8 1.45
   6  0.056  0.301  0.491-   7 1.43  41 1.43  11 1.43
   7  0.112  0.201  0.491-   6 1.43   5 1.44   2 1.44
   8  0.281  0.304  0.505-   5 1.45  25 1.45   9 1.47
   9  0.221  0.405  0.508-  54 1.37  11 1.44   8 1.47
  10  0.053  0.501  0.498-  14 1.43  45 1.43  11 1.43
  11  0.110  0.401  0.498-   6 1.43  10 1.43   9 1.44
  12  0.218  0.600  0.514-  54 1.38  14 1.43  15 1.45
  13  0.052  0.700  0.497-  14 1.43  49 1.43  18 1.43
  14  0.108  0.601  0.502-  13 1.43  12 1.43  10 1.43
  15  0.273  0.702  0.517-  16 1.43  12 1.45  29 1.46
  16  0.220  0.800  0.502-  15 1.43  18 1.43  19 1.45
  17  0.055  0.900  0.489-  53 1.43  18 1.43   3 1.44
  18  0.109  0.800  0.495-  17 1.43  16 1.43  13 1.43
  19  0.276  0.901  0.498-   1 1.43  31 1.43  16 1.45
  20  0.555  0.999  0.487-  33 1.42  22 1.42  23 1.42
  21  0.388  0.100  0.490-   4 1.42  26 1.43  22 1.43
  22  0.444  1.000  0.490-  20 1.42  21 1.43  31 1.43
  23  0.611  0.097  0.483-  24 1.42  20 1.42  35 1.43
  24  0.556  0.196  0.487-  23 1.42  27 1.42  26 1.42
  25  0.394  0.299  0.506-  55 1.38  26 1.43   8 1.45
  26  0.445  0.198  0.492-  24 1.42  21 1.43  25 1.43
  27  0.614  0.294  0.491-  28 1.40  39 1.42  24 1.42
  28  0.560  0.388  0.511-  55 1.37  56 1.38  27 1.40
  29  0.382  0.714  0.539-  57 1.33  32 1.46  15 1.46
  30  0.556  0.803  0.511-  58 1.38  33 1.43  32 1.44
  31  0.388  0.901  0.500-  32 1.42  22 1.43  19 1.43
  32  0.444  0.805  0.516-  31 1.42  30 1.44  29 1.46
  33  0.610  0.900  0.494-  20 1.42  51 1.42  30 1.43
  34  0.889  0.999  0.484-  53 1.43  36 1.43  37 1.44
  35  0.722  0.098  0.481-  36 1.42  23 1.43  40 1.43
  36  0.778  0.999  0.483-  35 1.42  34 1.43  51 1.43
  37  0.945  0.100  0.483-  38 1.43   2 1.43  34 1.44
  38  0.890  0.199  0.483-  40 1.42  37 1.43  41 1.43
  39  0.724  0.297  0.487-  27 1.42  40 1.42  44 1.43
  40  0.779  0.198  0.482-  39 1.42  38 1.42  35 1.43
  41  0.945  0.300  0.487-   6 1.43  42 1.43  38 1.43
  42  0.888  0.399  0.490-  44 1.42  45 1.43  41 1.43
  43  0.719  0.493  0.508-  56 1.38  44 1.43  48 1.46
  44  0.777  0.397  0.493-  42 1.42  43 1.43  39 1.43
  45  0.941  0.500  0.495-  42 1.43  10 1.43  46 1.44
  46  0.883  0.599  0.499-  45 1.44  49 1.44  48 1.45
  47  0.718  0.703  0.508-  58 1.38  52 1.43  48 1.46
  48  0.771  0.598  0.506-  46 1.45  43 1.46  47 1.46
  49  0.941  0.699  0.495-  50 1.42  13 1.43  46 1.44
  50  0.887  0.799  0.492-  49 1.42  52 1.43  53 1.44
  51  0.721  0.900  0.490-  33 1.42  52 1.43  36 1.43
  52  0.776  0.800  0.495-  50 1.43  51 1.43  47 1.43
  53  0.943  0.899  0.487-  34 1.43  17 1.43  50 1.44
  54  0.267  0.502  0.523-   9 1.37  12 1.38  59 1.86
  55  0.455  0.387  0.521-  28 1.37  25 1.38  59 1.83
  56  0.615  0.481  0.524-  28 1.38  43 1.38  60 1.92
  57  0.420  0.645  0.584-  29 1.33  59 1.78  60 1.84
  58  0.613  0.710  0.521-  47 1.38  30 1.38  60 1.94
  59  0.401  0.509  0.559-  57 1.78  55 1.83  54 1.86  60 2.26
  60  0.554  0.595  0.575-  57 1.84  56 1.92  58 1.94  59 2.26
 
  LATTYP: Found a simple orthorhombic cell.
 ALAT       =    12.4000000000
 B/A-ratio  =     1.0330645161
 C/A-ratio  =     1.6129032258
  
  Lattice vectors:
  
 A1 = (   0.0000000000, -12.4000000000,   0.0000000000)
 A2 = ( -12.8100000000,   0.0000000000,   0.0000000000)
 A3 = (   0.0000000000,   0.0000000000, -20.0000000000)


Analysis of symmetry for initial positions (statically):
=====================================================================
 Subroutine PRICEL returns:
 Original cell was already a primitive cell.
 

 Routine SETGRP: Setting up the symmetry group for a 
 simple orthorhombic supercell.


 Subroutine GETGRP returns: Found  1 space group operations
 (whereof  1 operations were pure point group operations)
 out of a pool of  8 trial point group operations.


The static configuration has the point symmetry C_1 .


Analysis of symmetry for dynamics (positions and initial velocities):
=====================================================================
 Subroutine PRICEL returns:
 Original cell was already a primitive cell.
 

 Routine SETGRP: Setting up the symmetry group for a 
 simple orthorhombic supercell.


 Subroutine GETGRP returns: Found  1 space group operations
 (whereof  1 operations were pure point group operations)
 out of a pool of  8 trial point group operations.


The dynamic configuration has the point symmetry C_1 .


Analysis of structural, dynamic, and magnetic symmetry:
=====================================================================
 Subroutine PRICEL returns:
 Original cell was already a primitive cell.
 

 Routine SETGRP: Setting up the symmetry group for a 
 simple orthorhombic supercell.


 Subroutine GETGRP returns: Found  1 space group operations
 (whereof  1 operations were pure point group operations)
 out of a pool of  8 trial point group operations.


The magnetic configuration has the point symmetry C_1 .


 Subroutine INISYM returns: Found  1 space group operations
 (whereof  1 operations are pure point group operations),
 and found     1 'primitive' translations

 
 
 KPOINTS: KPOINTS created by Atomic Simulation Env

Automatic generation of k-mesh.
Space group operators:
 irot       det(A)        alpha          n_x          n_y          n_z        tau_x        tau_y        tau_z
    1     1.000000     0.000000     1.000000     0.000000     0.000000     0.000000     0.000000     0.000000
 
 Subroutine IBZKPT returns following result:
 ===========================================
 
 Found      2 irreducible k-points:
 
 Following reciprocal coordinates:
            Coordinates               Weight
  0.250000  0.250000  0.000000      2.000000
 -0.250000  0.250000  0.000000      2.000000
 
 Following cartesian coordinates:
            Coordinates               Weight
  0.019516  0.020161  0.000000      2.000000
 -0.019516  0.020161  0.000000      2.000000
 
 
 Subroutine IBZKPT_HF returns following result:
 ==============================================
 
 Found      4 k-points in 1st BZ
 the following      4 k-points will be used (e.g. in the exchange kernel)
 Following reciprocal coordinates:   # in IRBZ
  0.250000  0.250000  0.000000    0.25000000   1 t-inv F
 -0.250000  0.250000  0.000000    0.25000000   2 t-inv F
 -0.250000 -0.250000  0.000000    0.25000000   1 t-inv T
  0.250000 -0.250000  0.000000    0.25000000   2 t-inv T


--------------------------------------------------------------------------------------------------------




 Dimension of arrays:
   k-points           NKPTS =      2   k-points in BZ     NKDIM =      4   number of bands    NBANDS=    160
   number of dos      NEDOS =    301   number of ions     NIONS =     60
   non local maximal  LDIM  =      6   non local SUM 2l+1 LMDIM =     18
   total plane-waves  NPLWV = ******
   max r-space proj   IRMAX =      1   max aug-charges    IRDMAX=  14730
   dimension x,y,z NGX =    96 NGY =   90 NGZ =  150
   dimension x,y,z NGXF=   192 NGYF=  180 NGZF=  300
   support grid    NGXF=   192 NGYF=  180 NGZF=  300
   ions per type =              53   5   1   1
   NGX,Y,Z   is equivalent  to a cutoff of  12.46, 12.07, 12.47 a.u.
   NGXF,Y,Z  is equivalent  to a cutoff of  24.92, 24.13, 24.94 a.u.

 SYSTEM =  unknown system                          
 POSCAR =   C  N Ni Fe                             

 Startparameter for this run:
   NWRITE =      2    write-flag & timer
   PREC   = accura    normal or accurate (medium, high low for compatibility)
   ISTART =      1    job   : 0-new  1-cont  2-samecut
   ICHARG =      0    charge: 1-file 2-atom 10-const
   ISPIN  =      2    spin polarized calculation?
   LNONCOLLINEAR =      F non collinear calculations
   LSORBIT =      F    spin-orbit coupling
   INIWAV =      1    electr: 0-lowe 1-rand  2-diag
   LASPH  =      T    aspherical Exc in radial PAW
   METAGGA=      F    non-selfconsistent MetaGGA calc.

 Electronic Relaxation 1
   ENCUT  =  500.0 eV  36.75 Ry    6.06 a.u.  23.36 22.61 36.46*2*pi/ulx,y,z
   ENINI  =  500.0     initial cutoff
   ENAUG  =  644.9 eV  augmentation charge cutoff
   NELM   =    250;   NELMIN=  2; NELMDL=  0     # of ELM steps 
   EDIFF  = 0.1E-03   stopping-criterion for ELM
   LREAL  =      F    real-space projection
   NLSPLINE    = F    spline interpolate recip. space projectors
   LCOMPAT=      F    compatible to vasp.4.4
   GGA_COMPAT  = T    GGA compatible to vasp.4.4-vasp.4.6
   LMAXPAW     = -100 max onsite density
   LMAXMIX     =    2 max onsite mixed and CHGCAR
   VOSKOWN=      0    Vosko Wilk Nusair interpolation
   ROPT   =    0.00000   0.00000   0.00000   0.00000
 Ionic relaxation
   EDIFFG = -.3E-01   stopping-criterion for IOM
   NSW    =      0    number of steps for IOM
   NBLOCK =      1;   KBLOCK =      1    inner block; outer block 
   IBRION =     -1    ionic relax: 0-MD 1-quasi-New 2-CG
   NFREE  =      1    steps in history (QN), initial steepest desc. (CG)
   ISIF   =      2    stress and relaxation
   IWAVPR =     10    prediction:  0-non 1-charg 2-wave 3-comb
   ISYM   =      3    0-nonsym 1-usesym 2-fastsym
   LCORR  =      T    Harris-Foulkes like correction to forces

   POTIM  = 0.5000    time-step for ionic-motion
   TEIN   =    0.0    initial temperature
   TEBEG  =    0.0;   TEEND  =   0.0 temperature during run
   SMASS  =  -3.00    Nose mass-parameter (am)
   estimated Nose-frequenzy (Omega)   =  0.10E-29 period in steps =****** mass=  -0.375E-26a.u.
   SCALEE = 1.0000    scale energy and forces
   NPACO  =    256;   APACO  = 16.0  distance and # of slots for P.C.
   PSTRESS=    0.0 pullay stress

  Mass of Ions in am
   POMASS =  12.01 14.00 58.69 55.85
  Ionic Valenz
   ZVAL   =   4.00  5.00 10.00  8.00
  Atomic Wigner-Seitz radii
   RWIGS  =  -1.00 -1.00 -1.00 -1.00
  virtual crystal weights 
   VCA    =   1.00  1.00  1.00  1.00
   NELECT =     255.0000    total number of electrons
   NUPDOWN=      -1.0000    fix difference up-down

 DOS related values:
   EMIN   =  10.00;   EMAX   =-10.00  energy-range for DOS
   EFERMI =   0.00
   ISMEAR =     0;   SIGMA  =   0.10  broadening in eV -4-tet -1-fermi 0-gaus

 Electronic relaxation 2 (details)
   IALGO  =     53    algorithm
   LDIAG  =      T    sub-space diagonalisation (order eigenvalues)
   LSUBROT=      F    optimize rotation matrix (better conditioning)
   TURBO    =      0    0=normal 1=particle mesh
   IRESTART =      0    0=no restart 2=restart with 2 vectors
   NREBOOT  =      0    no. of reboots
   NMIN     =      0    reboot dimension
   EREF     =   0.00    reference energy to select bands
   IMIX   =      4    mixing-type and parameters
     AMIX     =   0.40;   BMIX     =  1.00
     AMIX_MAG =   1.60;   BMIX_MAG =  1.00
     AMIN     =   0.10
     WC   =   100.;   INIMIX=   1;  MIXPRE=   1;  MAXMIX= -45

 Intra band minimization:
   WEIMIN = 0.0000     energy-eigenvalue tresh-hold
   EBREAK =  0.16E-06  absolut break condition
   DEPER  =   0.30     relativ break condition  

   TIME   =   0.20     timestep for ELM

  volume/ion in A,a.u.               =      52.95       357.31
  Fermi-wavevector in a.u.,A,eV,Ry     =   0.706190  1.334505  6.785276  0.498704
  Thomas-Fermi vector in A             =   1.791903
 
 Write flags
   LWAVE        =      T    write WAVECAR
   LDOWNSAMPLE  =      F    k-point downsampling of WAVECAR
   LCHARG       =      T    write CHGCAR
   LVTOT        =      F    write LOCPOT, total local potential
   LVHAR        =      T    write LOCPOT, Hartree potential only
   LELF         =      F    write electronic localiz. function (ELF)
   LORBIT       =     11    0 simple, 1 ext, 2 COOP (PROOUT), +10 PAW based schemes


 Dipole corrections
   LMONO  =      F    monopole corrections only (constant potential shift)
   LDIPOL =      T    correct potential (dipole corrections)
   IDIPOL =      3    1-x, 2-y, 3-z, 4-all directions 
   EPSILON=  1.0000000 bulk dielectric constant

 Exchange correlation treatment:
   GGA     =    PE    GGA type
   LEXCH   =     8    internal setting for exchange type
   VOSKOWN=      0    Vosko Wilk Nusair interpolation
   EXXOEP  =     0    0=HF, 1=EXX-LHF (local Hartree Fock) 2=EXX OEP
   LHFCALC =     T    Hartree Fock is set to
   LSYMGRAD=     F    symmetrize gradient (conserves proper symmetry)
   PRECFOCK=normal    Normal, Fast or Accurate (Low or Medium for compatibility)
   LRHFCALC=     F    long range Hartree Fock
   LRSCOR  =     F    long range correlation only (use DFT for short range part)
   LTHOMAS =     F    Thomas Fermi screening in HF
   LMODELHF=     F    short range full HF, long range fraction AEXX
   ENCUT4O =  -1.0   cutoff for four orbital integrals eV
   LMAXFOCK=     4    L truncation for augmentation on plane wave grid
   LMAXFOCKAE=  -1    L truncation for all-electron charge restoration on plane wave grid
   NMAXFOCKAE=   1    number of basis functions for all-electron charge restoration
   LFOCKAEDFT=     F  apply the AE augmentation even for DFT
   NKREDX  =     1    reduce k-point grid by
   NKREDY  =     1    reduce k-point grid by
   NKREDZ  =     1    reduce k-point grid by
   SHIFTRED=     F    shift reduced grid of Gamma
   HFKIDENT=     F    idential grid for each k-point
   ODDONLY =     F    use only odd q-grid points
   EVENONLY=     F    use only even q-grid points
   HFALPHA =   -1.0000 decay constant for conv. correction
   MCALPHA =    0.0000 extent of test-charge in conv. correction in multipole expansion
   AEXX    =    0.2500 exact exchange contribution
   HFSCREEN=    0.2000 screening length (either q_TF or 0.3 A-1)
   HFSCREENC=   0.2000 screening length for correlation (either q_TF or 0.3 A-1)
   HFRCUT  =    0.0000 spherical cutoff for potential kernel
   ALDAX   =    0.7500 LDA exchange part
   AGGAX   =    0.7500 GGA exchange part
   ALDAC   =    1.0000 LDA correlation
   AGGAC   =    1.0000 GGA correlation
   ENCUTFOCK=  -1.0 apply spherical cutoff to Coloumb kernel
   NBANDSGWLOW=     1    first orbital included in HF term
   NBLOCK_FOCK=    64    blocking factor in FOCK_ACC
 Linear response parameters
   LEPSILON=     F    determine dielectric tensor
   LRPA    =     F    only Hartree local field effects (RPA)
   LNABLA  =     F    use nabla operator in PAW spheres
   LVEL    =     F    velocity operator in full k-point grid
   LINTERFAST=   F  fast interpolation
   KINTER  =     0    interpolate to denser k-point grid
   CSHIFT  =0.1000    complex shift for real part using Kramers Kronig
   OMEGAMAX=  -1.0    maximum frequency
   DEG_THRESHOLD= 0.2000000E-02 threshold for treating states as degnerate
   RTIME   =   -0.100 relaxation time in fs
  (WPLASMAI=    0.000 imaginary part of plasma frequency in eV, 0.658/RTIME)
   DFIELD  = 0.0000000 0.0000000 0.0000000 field for delta impulse in time
 
 Orbital magnetization related:
   ORBITALMAG=     F  switch on orbital magnetization
   LCHIMAG   =     F  perturbation theory with respect to B field
   DQ        =  0.001000  dq finite difference perturbation B field
   LLRAUG    =     F  two centre corrections for induced B field



--------------------------------------------------------------------------------------------------------


 Static calculation
 charge density and potential will be updated during run
 spin polarized calculation
 Conjugate gradient for all bands (Freysoldt, et al. PRB 79, 241103 (2009))
 perform sub-space diagonalisation
    before iterative eigenvector-optimisation
 modified Broyden-mixing scheme, WC =      100.0
 initial mixing is a Kerker type mixing with AMIX =  0.4000 and BMIX =      1.0000
 Hartree-type preconditioning will be used
 using additional bands           32
 reciprocal scheme for non local part
 use partial core corrections
 no Harris-corrections to forces 
 use gradient corrections 
 use of overlap-Matrix (Vanderbilt PP)
 Gauss-broadening in eV      SIGMA  =   0.10


--------------------------------------------------------------------------------------------------------


  energy-cutoff  :      500.00
  volume of cell :     3176.88
      direct lattice vectors                 reciprocal lattice vectors
    12.810000000  0.000000000  0.000000000     0.078064012  0.000000000  0.000000000
     0.000000000 12.400000000  0.000000000     0.000000000  0.080645161  0.000000000
     0.000000000  0.000000000 20.000000000     0.000000000  0.000000000  0.050000000

  length of vectors
    12.810000000 12.400000000 20.000000000     0.078064012  0.080645161  0.050000000


 
 old parameters found on file WAVECAR:
  energy-cutoff  :      500.00
  volume of cell :     3176.88
      direct lattice vectors                 reciprocal lattice vectors
    12.810000000  0.000000000  0.000000000     0.078064012  0.000000000  0.000000000
     0.000000000 12.400000000  0.000000000     0.000000000  0.080645161  0.000000000
     0.000000000  0.000000000 20.000000000     0.000000000  0.000000000  0.050000000

  length of vectors

 
 k-points in units of 2pi/SCALE and weight: KPOINTS created by Atomic Simulation Env
   0.01951600  0.02016129  0.00000000       0.500
  -0.01951600  0.02016129  0.00000000       0.500
 
 k-points in reciprocal lattice and weights: KPOINTS created by Atomic Simulation Env
   0.25000000  0.25000000  0.00000000       0.500
  -0.25000000  0.25000000  0.00000000       0.500
 
 position of ions in fractional coordinates (direct lattice) 
   0.22198489  0.00056587  0.49222086
   0.05689835  0.10070972  0.48674590
   0.11078909  0.00014691  0.48892893
   0.27750518  0.10158483  0.49242028
   0.22421930  0.20356184  0.49551353
   0.05612144  0.30076141  0.49083222
   0.11243576  0.20149292  0.49078114
   0.28059149  0.30400019  0.50466894
   0.22071000  0.40460747  0.50829642
   0.05291358  0.50077609  0.49795790
   0.10992043  0.40136681  0.49771828
   0.21761696  0.59997926  0.51448050
   0.05246884  0.70003783  0.49653726
   0.10792943  0.60072887  0.50193714
   0.27331505  0.70204193  0.51715181
   0.22001871  0.79990064  0.50182066
   0.05476071  0.89992165  0.48907873
   0.10890914  0.79975345  0.49461204
   0.27644488  0.90066097  0.49805726
   0.55452584  0.99894312  0.48747832
   0.38822815  0.09982061  0.48991692
   0.44356931  0.99993970  0.49034395
   0.61122250  0.09743577  0.48266263
   0.55598976  0.19622790  0.48677243
   0.39392221  0.29858977  0.50552582
   0.44520543  0.19847016  0.49193604
   0.61350951  0.29357957  0.49132746
   0.56043870  0.38754793  0.51082446
   0.38156570  0.71405569  0.53940080
   0.55592760  0.80332948  0.51065774
   0.38827555  0.90100043  0.49989903
   0.44372980  0.80506159  0.51569248
   0.61020692  0.90034594  0.49390938
   0.88912054  0.99929895  0.48352430
   0.72244803  0.09820676  0.48109793
   0.77767626  0.99869788  0.48333234
   0.94548420  0.09954628  0.48311161
   0.89011538  0.19926308  0.48267914
   0.72378440  0.29651713  0.48736954
   0.77893957  0.19783833  0.48160535
   0.94479546  0.29993167  0.48662314
   0.88838836  0.39939232  0.49046904
   0.71929982  0.49275214  0.50759458
   0.77744678  0.39720440  0.49320477
   0.94142095  0.50017887  0.49533285
   0.88330296  0.59918706  0.49873527
   0.71793011  0.70266924  0.50778428
   0.77095516  0.59807777  0.50625581
   0.94075388  0.69889435  0.49524990
   0.88695563  0.79918560  0.49157822
   0.72123832  0.89972812  0.49020196
   0.77584382  0.79962119  0.49531452
   0.94342026  0.89906021  0.48705201
   0.26716172  0.50167371  0.52272508
   0.45477059  0.38660158  0.52138131
   0.61498514  0.48102231  0.52368929
   0.41952034  0.64523415  0.58402118
   0.61290772  0.71049276  0.52134957
   0.40054798  0.50873812  0.55936838
   0.55387642  0.59528969  0.57486140
 
 position of ions in cartesian coordinates  (Angst):
   2.84362647  0.00701676  9.84441719
   0.72886788  1.24880056  9.73491810
   1.41920824  0.00182172  9.77857860
   3.55484132  1.25965184  9.84840555
   2.87224929  2.52416679  9.91027057
   0.71891563  3.72944154  9.81664433
   1.44030209  2.49851225  9.81562273
   3.59437695  3.76960237 10.09337884
   2.82729507  5.01713262 10.16592848
   0.67782293  6.20962352  9.95915794
   1.40808069  4.97694841  9.95436569
   2.78767322  7.43974284 10.28960992
   0.67212579  8.68046915  9.93074520
   1.38257601  7.44903800 10.03874285
   3.50116584  8.70531989 10.34303623
   2.81843972  9.91876789 10.03641314
   0.70148466 11.15902847  9.78157459
   1.39512606  9.91694273  9.89224074
   3.54125885 11.16819609  9.96114527
   7.10347604 12.38689474  9.74956631
   4.97320265  1.23777552  9.79833840
   5.68212284 12.39925234  9.80687895
   7.82976021  1.20820349  9.65325270
   7.12222884  2.43322594  9.73544865
   5.04614357  3.70251313 10.11051644
   5.70308153  2.46102993  9.83872071
   7.85905679  3.64038667  9.82654918
   7.17921972  4.80559437 10.21648911
   4.88785657  8.85429058 10.78801592
   7.12143255  9.96128552 10.21315487
   4.97380979 11.17240534  9.99798059
   5.68417876  9.98276372 10.31384955
   7.81675068 11.16428962  9.87818757
  11.38963407 12.39130701  9.67048593
   9.25455933  1.21776383  9.62195857
   9.96203293 12.38385374  9.66664685
  12.11165254  1.23437387  9.66223227
  11.40237804  2.47086221  9.65358281
   9.27167814  3.67681238  9.74739077
   9.97821594  2.45319526  9.63210694
  12.10282979  3.71915270  9.73246280
  11.38025491  4.95246482  9.80938075
   9.21423066  6.11012659 10.15189168
   9.95909331  4.92533460  9.86409531
  12.05960237  6.20221794  9.90665698
  11.31511086  7.42991954  9.97470534
   9.19668470  8.71309863 10.15568560
   9.87593563  7.41616438 10.12511619
  12.05105724  8.66628998  9.90499801
  11.36190158  9.90990144  9.83156439
   9.23906289 11.15662864  9.80403924
   9.93855932  9.91530271  9.90629041
  12.08521357 11.14834663  9.74104023
   3.42234165  6.22075398 10.45450155
   5.82561123  4.79385954 10.42762623
   7.87795958  5.96467665 10.47378571
   5.37405558  8.00090349 11.68042352
   7.85134790  8.81011026 10.42699137
   5.13101968  6.30835274 11.18736765
   7.09515693  7.38159211 11.49722799
 


--------------------------------------------------------------------------------------------------------


 k-point  1 :   0.2500 0.2500 0.0000  plane waves:   80679
 k-point  2 :  -0.2500 0.2500 0.0000  plane waves:   80679

 maximum and minimum number of plane-waves per node :      2047     1989

 maximum number of plane-waves:     80679
 maximum index in each direction: 
   IXMAX=   23   IYMAX=   22   IZMAX=   36
   IXMIN=  -23   IYMIN=  -22   IZMIN=  -36


 parallel 3D FFT for wavefunctions:
    minimum data exchange during FFTs selected (reduces bandwidth)
 parallel 3D FFT for charge:
    minimum data exchange during FFTs selected (reduces bandwidth)


 FFT grid for exact exchange (Hartree Fock) 
  NGX = 72; NGY = 70; NGZ =112

 
 Radii for the augmentation spheres in the non-local exchange
 for species   1 augmentation radius   0.874 (default was   0.699)
       energy cutoff for augmentation   2000.0
 for species   2 augmentation radius   0.886 (default was   0.709)
       energy cutoff for augmentation   2000.0
 for species   3 augmentation radius   1.224 (default was   0.979)
       energy cutoff for augmentation   2000.0
 for species   4 augmentation radius   1.263 (default was   1.010)
       energy cutoff for augmentation   2000.0

 real space projection operators:
  total allocation   :       2568.24 KBytes
  max/ min on nodes  :         93.86         36.89

 Maximum index for augmentation-charges in exchange          158
  SETUP_FOCK is finished

 total amount of memory used by VASP MPI-rank0   140531. kBytes
=======================================================================

   base      :      30000. kBytes
   nonl-proj :       4340. kBytes
   fftplans  :      11188. kBytes
   grid      :      29312. kBytes
   one-center:         62. kBytes
   HF        :         23. kBytes
   nonlr-proj:       1679. kBytes
   wavefun   :      63927. kBytes
 
     INWAV:  cpu time    4.3115: real time    4.3228
 Broyden mixing: mesh for mixing (old mesh)
   NGX = 47   NGY = 45   NGZ = 73
  (NGX  =192   NGY  =180   NGZ  =300)
  gives a total of 154395 points

 charge density for first step will be calculated from the start-wavefunctions


--------------------------------------------------------------------------------------------------------


 Maximum index for augmentation-charges          629 (set IRDMAX)


--------------------------------------------------------------------------------------------------------


 initial charge from wavefunction
 First call to EWALD:  gamma=   0.121
 Maximum number of real-space cells 3x 3x 2
 Maximum number of reciprocal cells 2x 2x 4

    FEWALD:  cpu time    0.0028: real time    0.0027


--------------------------------------- Iteration      1(   1)  ---------------------------------------


    POTLOK:  cpu time    0.8482: real time    0.8517
    SETDIJ:  cpu time    0.9707: real time    0.9737
    TRIAL :  cpu time  172.9906: real time  173.4607
    CORREC:  cpu time    0.0009: real time    0.0009
    CHARGE:  cpu time    0.7633: real time    0.7653
    --------------------------------------------
      LOOP:  cpu time  175.5937: real time  176.0746

 eigenvalue-minimisations  :     0
 total energy-change (2. order) :-0.6258046E+03  (-0.5431134E+00)
 number of electron     254.9999987 magnetization      -3.0000675
 augmentation part       16.4710313 magnetization      -2.0391556

 DIPCOR: dipole corrections for dipol
 direction  3 min pos     1,
 dipolmoment           0.000000      0.000000      0.037690 electrons x Angstroem
 Tr[quadrupol]     -7118.870989

 energy correction for charged system         0.000000 eV
 dipol+quadrupol energy correction           -0.000041 eV
 added-field ion interaction         -0.051519 eV  (added to PSCEN)


 Free energy of the ion-electron system (eV)
  ---------------------------------------------------
  alpha Z        PSCENC =       106.99161025
  Ewald energy   TEWEN  =     41820.02016031
  -Hartree energ DENC   =    -51063.82574986
  -exchange      EXHF   =       582.51437218
  -V(xc)+E(xc)   XCENC  =       663.69084378
  PAW double counting   =     27889.88760616   -27993.04517328
  entropy T*S    EENTRO =        -0.00061861
  eigenvalues    EBANDS =     -3309.44919986
  atomic energy  EATOM  =     10677.41507134
  ---------------------------------------------------
  free energy    TOTEN  =      -625.80459053 eV

  energy without entropy =     -625.80397192  energy(sigma->0) =     -625.80428122
  exchange ACFDT corr.  =        -0.01215293  see jH, gK, PRB 81, 115126


--------------------------------------------------------------------------------------------------------




--------------------------------------- Iteration      1(   2)  ---------------------------------------


    POTLOK:  cpu time    0.8580: real time    0.8619
    SETDIJ:  cpu time    0.9780: real time    0.9812
    TRIAL :  cpu time  172.0097: real time  172.4774
    CORREC:  cpu time    0.0013: real time    0.0013
    CHARGE:  cpu time    0.7623: real time    0.7643
    --------------------------------------------
      LOOP:  cpu time  174.6104: real time  175.0904

 eigenvalue-minimisations  :     0
 total energy-change (2. order) :-0.4006510E+00  (-0.4199120E+00)
 number of electron     254.9999987 magnetization      -3.0000038
 augmentation part       16.4383273 magnetization      -2.0692448

 DIPCOR: dipole corrections for dipol
 direction  3 min pos     1,
 dipolmoment           0.000000      0.000000      0.101847 electrons x Angstroem
 Tr[quadrupol]     -7118.663428

 energy correction for charged system         0.000000 eV
 dipol+quadrupol energy correction           -0.000297 eV
 added-field ion interaction         -0.139216 eV  (added to PSCEN)


 Free energy of the ion-electron system (eV)
  ---------------------------------------------------
  alpha Z        PSCENC =       106.90365745
  Ewald energy   TEWEN  =     41820.02016031
  -Hartree energ DENC   =    -51057.03230797
  -exchange      EXHF   =       582.52023745
  -V(xc)+E(xc)   XCENC  =       663.45367446
  PAW double counting   =     28033.15334660   -28137.35691541
  entropy T*S    EENTRO =        -0.00003877
  eigenvalues    EBANDS =     -3315.28154713
  atomic energy  EATOM  =     10677.41507134
  ---------------------------------------------------
  free energy    TOTEN  =      -626.20524151 eV

  energy without entropy =     -626.20520273  energy(sigma->0) =     -626.20522212
  exchange ACFDT corr.  =        -0.00188752  see jH, gK, PRB 81, 115126


--------------------------------------------------------------------------------------------------------




--------------------------------------- Iteration      1(   3)  ---------------------------------------


    POTLOK:  cpu time    0.8718: real time    0.8756
    SETDIJ:  cpu time    0.9708: real time    0.9736
    TRIAL :  cpu time  172.2241: real time  172.6870
    CORREC:  cpu time    0.0010: real time    0.0010
    CHARGE:  cpu time    0.7606: real time    0.7629
    --------------------------------------------
      LOOP:  cpu time  174.8296: real time  175.3048

 eigenvalue-minimisations  :     0
 total energy-change (2. order) :-0.3222192E+00  (-0.2365227E+00)
 number of electron     254.9999987 magnetization      -2.9999999
 augmentation part       16.4073904 magnetization      -2.0934061

 DIPCOR: dipole corrections for dipol
 direction  3 min pos     1,
 dipolmoment           0.000000      0.000000      0.102876 electrons x Angstroem
 Tr[quadrupol]     -7118.478191

 energy correction for charged system         0.000000 eV
 dipol+quadrupol energy correction           -0.000303 eV
 added-field ion interaction         -0.140623 eV  (added to PSCEN)


 Free energy of the ion-electron system (eV)
  ---------------------------------------------------
  alpha Z        PSCENC =       106.90224432
  Ewald energy   TEWEN  =     41820.02016031
  -Hartree energ DENC   =    -51040.46263969
  -exchange      EXHF   =       582.44428944
  -V(xc)+E(xc)   XCENC  =       663.03454997
  PAW double counting   =     28203.00012551   -28306.25900003
  entropy T*S    EENTRO =        -0.00000170
  eigenvalues    EBANDS =     -3332.62222310
  atomic energy  EATOM  =     10677.41507134
  ---------------------------------------------------
  free energy    TOTEN  =      -626.52746070 eV

  energy without entropy =     -626.52745899  energy(sigma->0) =     -626.52745985
  exchange ACFDT corr.  =        -0.00008704  see jH, gK, PRB 81, 115126


--------------------------------------------------------------------------------------------------------




--------------------------------------- Iteration      1(   4)  ---------------------------------------


    POTLOK:  cpu time    0.8715: real time    0.8767
    SETDIJ:  cpu time    0.9707: real time    0.9732
    TRIAL :  cpu time  172.4048: real time  172.9008
    CORREC:  cpu time    0.0007: real time    0.0007
    CHARGE:  cpu time    0.7641: real time    0.7661
    --------------------------------------------
      LOOP:  cpu time  175.0131: real time  175.5223

 eigenvalue-minimisations  :     0
 total energy-change (2. order) :-0.1758948E+00  (-0.1370001E+00)
 number of electron     254.9999987 magnetization      -2.9999997
 augmentation part       16.4194224 magnetization      -2.1068135

 DIPCOR: dipole corrections for dipol
 direction  3 min pos     1,
 dipolmoment           0.000000      0.000000      0.077752 electrons x Angstroem
 Tr[quadrupol]     -7118.422336

 energy correction for charged system         0.000000 eV
 dipol+quadrupol energy correction           -0.000173 eV
 added-field ion interaction         -0.106280 eV  (added to PSCEN)


 Free energy of the ion-electron system (eV)
  ---------------------------------------------------
  alpha Z        PSCENC =       106.93671726
  Ewald energy   TEWEN  =     41820.02016031
  -Hartree energ DENC   =    -51030.70148129
  -exchange      EXHF   =       582.53778747
  -V(xc)+E(xc)   XCENC  =       662.81625271
  PAW double counting   =     28348.15432187   -28450.45781516
  entropy T*S    EENTRO =        -0.00000006
  eigenvalues    EBANDS =     -3343.42436834
  atomic energy  EATOM  =     10677.41507134
  ---------------------------------------------------
  free energy    TOTEN  =      -626.70335552 eV

  energy without entropy =     -626.70335546  energy(sigma->0) =     -626.70335549
  exchange ACFDT corr.  =        -0.00000314  see jH, gK, PRB 81, 115126


--------------------------------------------------------------------------------------------------------




--------------------------------------- Iteration      1(   5)  ---------------------------------------


    POTLOK:  cpu time    0.8698: real time    0.8737
    SETDIJ:  cpu time    0.9874: real time    0.9899
    TRIAL :  cpu time  172.0683: real time  172.5490
    CORREC:  cpu time    0.0006: real time    0.0006
    CHARGE:  cpu time    0.7587: real time    0.7607
    --------------------------------------------
      LOOP:  cpu time  174.6872: real time  175.1797

 eigenvalue-minimisations  :     0
 total energy-change (2. order) :-0.1093556E+00  (-0.8679735E-01)
 number of electron     254.9999987 magnetization      -2.9999997
 augmentation part       16.4385474 magnetization      -2.1131982

 DIPCOR: dipole corrections for dipol
 direction  3 min pos     1,
 dipolmoment           0.000000      0.000000      0.061294 electrons x Angstroem
 Tr[quadrupol]     -7118.483743

 energy correction for charged system         0.000000 eV
 dipol+quadrupol energy correction           -0.000107 eV
 added-field ion interaction         -0.083783 eV  (added to PSCEN)


 Free energy of the ion-electron system (eV)
  ---------------------------------------------------
  alpha Z        PSCENC =       106.95927930
  Ewald energy   TEWEN  =     41820.02016031
  -Hartree energ DENC   =    -51033.08856117
  -exchange      EXHF   =       582.83679948
  -V(xc)+E(xc)   XCENC  =       662.89979999
  PAW double counting   =     28456.10424025   -28558.65678307
  entropy T*S    EENTRO =        -0.00000000
  eigenvalues    EBANDS =     -3341.30271754
  atomic energy  EATOM  =     10677.41507134
  ---------------------------------------------------
  free energy    TOTEN  =      -626.81271116 eV

  energy without entropy =     -626.81271116  energy(sigma->0) =     -626.81271116
  exchange ACFDT corr.  =        -0.00000009  see jH, gK, PRB 81, 115126


--------------------------------------------------------------------------------------------------------




--------------------------------------- Iteration      1(   6)  ---------------------------------------


    POTLOK:  cpu time    0.8690: real time    0.8721
    SETDIJ:  cpu time    0.9683: real time    0.9720
    TRIAL :  cpu time  171.9458: real time  173.0974
    CORREC:  cpu time    0.0005: real time    0.0005
    CHARGE:  cpu time    0.7619: real time    0.7638
    --------------------------------------------
      LOOP:  cpu time  174.5476: real time  175.7113

 eigenvalue-minimisations  :     0
 total energy-change (2. order) :-0.7130598E-01  (-0.5831007E-01)
 number of electron     254.9999987 magnetization      -2.9999998
 augmentation part       16.4440933 magnetization      -2.1159763

 DIPCOR: dipole corrections for dipol
 direction  3 min pos     1,
 dipolmoment           0.000000      0.000000      0.054715 electrons x Angstroem
 Tr[quadrupol]     -7118.572219

 energy correction for charged system         0.000000 eV
 dipol+quadrupol energy correction           -0.000086 eV
 added-field ion interaction         -0.074790 eV  (added to PSCEN)


 Free energy of the ion-electron system (eV)
  ---------------------------------------------------
  alpha Z        PSCENC =       106.96829416
  Ewald energy   TEWEN  =     41820.02016031
  -Hartree energ DENC   =    -51038.74461685
  -exchange      EXHF   =       583.15729366
  -V(xc)+E(xc)   XCENC  =       663.07060687
  PAW double counting   =     28526.31946108   -28629.26169997
  entropy T*S    EENTRO =        -0.00000000
  eigenvalues    EBANDS =     -3335.82858773
  atomic energy  EATOM  =     10677.41507134
  ---------------------------------------------------
  free energy    TOTEN  =      -626.88401714 eV

  energy without entropy =     -626.88401714  energy(sigma->0) =     -626.88401714
  exchange ACFDT corr.  =        -0.00000000  see jH, gK, PRB 81, 115126


--------------------------------------------------------------------------------------------------------




--------------------------------------- Iteration      1(   7)  ---------------------------------------


    POTLOK:  cpu time    0.8634: real time    0.8662
    SETDIJ:  cpu time    0.9665: real time    0.9690
    TRIAL :  cpu time  171.2012: real time  171.6525
    CORREC:  cpu time    0.0005: real time    0.0005
    CHARGE:  cpu time    0.7596: real time    0.7615
    --------------------------------------------
      LOOP:  cpu time  173.7931: real time  174.2557

 eigenvalue-minimisations  :     0
 total energy-change (2. order) :-0.4986661E-01  (-0.4029459E-01)
 number of electron     254.9999987 magnetization      -2.9999998
 augmentation part       16.4439677 magnetization      -2.1170661

 DIPCOR: dipole corrections for dipol
 direction  3 min pos     1,
 dipolmoment           0.000000      0.000000      0.052068 electrons x Angstroem
 Tr[quadrupol]     -7118.634611

 energy correction for charged system         0.000000 eV
 dipol+quadrupol energy correction           -0.000078 eV
 added-field ion interaction         -0.071173 eV  (added to PSCEN)


 Free energy of the ion-electron system (eV)
  ---------------------------------------------------
  alpha Z        PSCENC =       106.97191939
  Ewald energy   TEWEN  =     41820.02016031
  -Hartree energ DENC   =    -51042.25305593
  -exchange      EXHF   =       583.39381267
  -V(xc)+E(xc)   XCENC  =       663.19491838
  PAW double counting   =     28566.86992869   -28669.80328878
  entropy T*S    EENTRO =        -0.00000000
  eigenvalues    EBANDS =     -3332.74334982
  atomic energy  EATOM  =     10677.41507134
  ---------------------------------------------------
  free energy    TOTEN  =      -626.93388375 eV

  energy without entropy =     -626.93388375  energy(sigma->0) =     -626.93388375
  exchange ACFDT corr.  =        -0.00000000  see jH, gK, PRB 81, 115126


--------------------------------------------------------------------------------------------------------




--------------------------------------- Iteration      1(   8)  ---------------------------------------


    POTLOK:  cpu time    0.8609: real time    0.8638
    SETDIJ:  cpu time    0.9605: real time    0.9631
    TRIAL :  cpu time  171.3606: real time  171.8140
    CORREC:  cpu time    0.0005: real time    0.0005
    CHARGE:  cpu time    0.7586: real time    0.7605
    --------------------------------------------
      LOOP:  cpu time  173.9432: real time  174.4075

 eigenvalue-minimisations  :     0
 total energy-change (2. order) :-0.3503071E-01  (-0.2892116E-01)
 number of electron     254.9999987 magnetization      -2.9999998
 augmentation part       16.4473044 magnetization      -2.1179785

 DIPCOR: dipole corrections for dipol
 direction  3 min pos     1,
 dipolmoment           0.000000      0.000000      0.050819 electrons x Angstroem
 Tr[quadrupol]     -7118.666257

 energy correction for charged system         0.000000 eV
 dipol+quadrupol energy correction           -0.000074 eV
 added-field ion interaction         -0.069465 eV  (added to PSCEN)


 Free energy of the ion-electron system (eV)
  ---------------------------------------------------
  alpha Z        PSCENC =       106.97363076
  Ewald energy   TEWEN  =     41820.02016031
  -Hartree energ DENC   =    -51043.94319301
  -exchange      EXHF   =       583.55192625
  -V(xc)+E(xc)   XCENC  =       663.27235740
  PAW double counting   =     28588.86555152   -28691.70005336
  entropy T*S    EENTRO =        -0.00000000
  eigenvalues    EBANDS =     -3331.42436567
  atomic energy  EATOM  =     10677.41507134
  ---------------------------------------------------
  free energy    TOTEN  =      -626.96891446 eV

  energy without entropy =     -626.96891446  energy(sigma->0) =     -626.96891446
  exchange ACFDT corr.  =        -0.00000000  see jH, gK, PRB 81, 115126


--------------------------------------------------------------------------------------------------------




--------------------------------------- Iteration      1(   9)  ---------------------------------------


    POTLOK:  cpu time    0.8583: real time    0.8646
    SETDIJ:  cpu time    0.9714: real time    0.9738
    TRIAL :  cpu time  171.6070: real time  172.0586
    CORREC:  cpu time    0.0005: real time    0.0005
    CHARGE:  cpu time    0.7539: real time    0.7563
    --------------------------------------------
      LOOP:  cpu time  174.1928: real time  174.6595

 eigenvalue-minimisations  :     0
 total energy-change (2. order) :-0.2586040E-01  (-0.2168394E-01)
 number of electron     254.9999987 magnetization      -2.9999998
 augmentation part       16.4520143 magnetization      -2.1193189

 DIPCOR: dipole corrections for dipol
 direction  3 min pos     1,
 dipolmoment           0.000000      0.000000      0.049906 electrons x Angstroem
 Tr[quadrupol]     -7118.679995

 energy correction for charged system         0.000000 eV
 dipol+quadrupol energy correction           -0.000071 eV
 added-field ion interaction         -0.068218 eV  (added to PSCEN)


 Free energy of the ion-electron system (eV)
  ---------------------------------------------------
  alpha Z        PSCENC =       106.97488086
  Ewald energy   TEWEN  =     41820.02016031
  -Hartree energ DENC   =    -51045.10554342
  -exchange      EXHF   =       583.66301207
  -V(xc)+E(xc)   XCENC  =       663.32950624
  PAW double counting   =     28601.08193184   -28703.98676340
  entropy T*S    EENTRO =        -0.00000000
  eigenvalues    EBANDS =     -3330.38703071
  atomic energy  EATOM  =     10677.41507134
  ---------------------------------------------------
  free energy    TOTEN  =      -626.99477486 eV

  energy without entropy =     -626.99477486  energy(sigma->0) =     -626.99477486
  exchange ACFDT corr.  =        -0.00000000  see jH, gK, PRB 81, 115126


--------------------------------------------------------------------------------------------------------




--------------------------------------- Iteration      1(  10)  ---------------------------------------


    POTLOK:  cpu time    0.8550: real time    0.8589
    SETDIJ:  cpu time    0.9751: real time    0.9777
    TRIAL :  cpu time  171.6461: real time  172.0978
    CORREC:  cpu time    0.0006: real time    0.0006
    CHARGE:  cpu time    0.7551: real time    0.7571
    --------------------------------------------
      LOOP:  cpu time  174.2344: real time  174.6980

 eigenvalue-minimisations  :     0
 total energy-change (2. order) :-0.1962524E-01  (-0.1663923E-01)
 number of electron     254.9999987 magnetization      -2.9999998
 augmentation part       16.4545782 magnetization      -2.1207961

 DIPCOR: dipole corrections for dipol
 direction  3 min pos     1,
 dipolmoment           0.000000      0.000000      0.048534 electrons x Angstroem
 Tr[quadrupol]     -7118.684620

 energy correction for charged system         0.000000 eV
 dipol+quadrupol energy correction           -0.000067 eV
 added-field ion interaction         -0.066341 eV  (added to PSCEN)


 Free energy of the ion-electron system (eV)
  ---------------------------------------------------
  alpha Z        PSCENC =       106.97676139
  Ewald energy   TEWEN  =     41820.02016031
  -Hartree energ DENC   =    -51045.75473036
  -exchange      EXHF   =       583.74033786
  -V(xc)+E(xc)   XCENC  =       663.36840994
  PAW double counting   =     28607.85839758   -28710.89337207
  entropy T*S    EENTRO =        -0.00000000
  eigenvalues    EBANDS =     -3329.74543610
  atomic energy  EATOM  =     10677.41507134
  ---------------------------------------------------
  free energy    TOTEN  =      -627.01440010 eV

  energy without entropy =     -627.01440010  energy(sigma->0) =     -627.01440010
  exchange ACFDT corr.  =        -0.00000000  see jH, gK, PRB 81, 115126


--------------------------------------------------------------------------------------------------------




--------------------------------------- Iteration      1(  11)  ---------------------------------------


    POTLOK:  cpu time    0.8561: real time    0.8589
    SETDIJ:  cpu time    0.9651: real time    0.9679
    TRIAL :  cpu time  171.4539: real time  171.9054
    CORREC:  cpu time    0.0006: real time    0.0006
    CHARGE:  cpu time    0.7572: real time    0.7591
    --------------------------------------------
      LOOP:  cpu time  174.0352: real time  174.4976

 eigenvalue-minimisations  :     0
 total energy-change (2. order) :-0.1530488E-01  (-0.1320867E-01)
 number of electron     254.9999987 magnetization      -2.9999998
 augmentation part       16.4551601 magnetization      -2.1219052

 DIPCOR: dipole corrections for dipol
 direction  3 min pos     1,
 dipolmoment           0.000000      0.000000      0.046700 electrons x Angstroem
 Tr[quadrupol]     -7118.685639

 energy correction for charged system         0.000000 eV
 dipol+quadrupol energy correction           -0.000062 eV
 added-field ion interaction         -0.063835 eV  (added to PSCEN)


 Free energy of the ion-electron system (eV)
  ---------------------------------------------------
  alpha Z        PSCENC =       106.97927209
  Ewald energy   TEWEN  =     41820.02016031
  -Hartree energ DENC   =    -51045.82834602
  -exchange      EXHF   =       583.79369857
  -V(xc)+E(xc)   XCENC  =       663.39030563
  PAW double counting   =     28611.43643019   -28714.53758029
  entropy T*S    EENTRO =        -0.00000000
  eigenvalues    EBANDS =     -3329.69871681
  atomic energy  EATOM  =     10677.41507134
  ---------------------------------------------------
  free energy    TOTEN  =      -627.02970498 eV

  energy without entropy =     -627.02970498  energy(sigma->0) =     -627.02970498
  exchange ACFDT corr.  =        -0.00000000  see jH, gK, PRB 81, 115126


--------------------------------------------------------------------------------------------------------




--------------------------------------- Iteration      1(  12)  ---------------------------------------


    POTLOK:  cpu time    0.8524: real time    0.8553
    SETDIJ:  cpu time    0.9748: real time    0.9774
    TRIAL :  cpu time  171.5771: real time  172.0331
    CORREC:  cpu time    0.0005: real time    0.0005
    CHARGE:  cpu time    0.7620: real time    0.7639
    --------------------------------------------
      LOOP:  cpu time  174.1699: real time  174.6365

 eigenvalue-minimisations  :     0
 total energy-change (2. order) :-0.1226651E-01  (-0.1070620E-01)
 number of electron     254.9999987 magnetization      -2.9999998
 augmentation part       16.4559220 magnetization      -2.1224252

 DIPCOR: dipole corrections for dipol
 direction  3 min pos     1,
 dipolmoment           0.000000      0.000000      0.045005 electrons x Angstroem
 Tr[quadrupol]     -7118.686988

 energy correction for charged system         0.000000 eV
 dipol+quadrupol energy correction           -0.000058 eV
 added-field ion interaction         -0.061517 eV  (added to PSCEN)


 Free energy of the ion-electron system (eV)
  ---------------------------------------------------
  alpha Z        PSCENC =       106.98159459
  Ewald energy   TEWEN  =     41820.02016031
  -Hartree energ DENC   =    -51045.67464826
  -exchange      EXHF   =       583.83489429
  -V(xc)+E(xc)   XCENC  =       663.40456092
  PAW double counting   =     28613.44010290   -28716.55261806
  entropy T*S    EENTRO =        -0.00000000
  eigenvalues    EBANDS =     -3329.91108952
  atomic energy  EATOM  =     10677.41507134
  ---------------------------------------------------
  free energy    TOTEN  =      -627.04197149 eV

  energy without entropy =     -627.04197149  energy(sigma->0) =     -627.04197149
  exchange ACFDT corr.  =        -0.00000000  see jH, gK, PRB 81, 115126


--------------------------------------------------------------------------------------------------------




--------------------------------------- Iteration      1(  13)  ---------------------------------------


    POTLOK:  cpu time    0.8521: real time    0.8558
    SETDIJ:  cpu time    0.9663: real time    0.9700
    TRIAL :  cpu time  171.6361: real time  172.0875
    CORREC:  cpu time    0.0005: real time    0.0005
    CHARGE:  cpu time    0.7660: real time    0.7684
    --------------------------------------------
      LOOP:  cpu time  174.2232: real time  174.6882

 eigenvalue-minimisations  :     0
 total energy-change (2. order) :-0.1006335E-01  (-0.8926757E-02)
 number of electron     254.9999987 magnetization      -2.9999998
 augmentation part       16.4572392 magnetization      -2.1224786

 DIPCOR: dipole corrections for dipol
 direction  3 min pos     1,
 dipolmoment           0.000000      0.000000      0.043790 electrons x Angstroem
 Tr[quadrupol]     -7118.690694

 energy correction for charged system         0.000000 eV
 dipol+quadrupol energy correction           -0.000055 eV
 added-field ion interaction         -0.059857 eV  (added to PSCEN)


 Free energy of the ion-electron system (eV)
  ---------------------------------------------------
  alpha Z        PSCENC =       106.98325772
  Ewald energy   TEWEN  =     41820.02016031
  -Hartree energ DENC   =    -51045.69901038
  -exchange      EXHF   =       583.87317424
  -V(xc)+E(xc)   XCENC  =       663.42078824
  PAW double counting   =     28615.10502714   -28718.24248465
  entropy T*S    EENTRO =        -0.00000000
  eigenvalues    EBANDS =     -3329.92801882
  atomic energy  EATOM  =     10677.41507134
  ---------------------------------------------------
  free energy    TOTEN  =      -627.05203484 eV

  energy without entropy =     -627.05203484  energy(sigma->0) =     -627.05203484
  exchange ACFDT corr.  =        -0.00000000  see jH, gK, PRB 81, 115126


--------------------------------------------------------------------------------------------------------




--------------------------------------- Iteration      1(  14)  ---------------------------------------


    POTLOK:  cpu time    0.8542: real time    0.8577
    SETDIJ:  cpu time    0.9598: real time    0.9624
    TRIAL :  cpu time  171.3521: real time  171.8048
    CORREC:  cpu time    0.0005: real time    0.0005
    CHARGE:  cpu time    0.7543: real time    0.7561
    --------------------------------------------
      LOOP:  cpu time  173.9232: real time  174.3872

 eigenvalue-minimisations  :     0
 total energy-change (2. order) :-0.8461355E-02  (-0.7599724E-02)
 number of electron     254.9999987 magnetization      -2.9999998
 augmentation part       16.4584032 magnetization      -2.1222080

 DIPCOR: dipole corrections for dipol
 direction  3 min pos     1,
 dipolmoment           0.000000      0.000000      0.042861 electrons x Angstroem
 Tr[quadrupol]     -7118.695674

 energy correction for charged system         0.000000 eV
 dipol+quadrupol energy correction           -0.000053 eV
 added-field ion interaction         -0.058588 eV  (added to PSCEN)


 Free energy of the ion-electron system (eV)
  ---------------------------------------------------
  alpha Z        PSCENC =       106.98452964
  Ewald energy   TEWEN  =     41820.02016031
  -Hartree energ DENC   =    -51045.88570972
  -exchange      EXHF   =       583.90953731
  -V(xc)+E(xc)   XCENC  =       663.43891122
  PAW double counting   =     28616.98062639   -28720.16059871
  entropy T*S    EENTRO =        -0.00000000
  eigenvalues    EBANDS =     -3329.76302398
  atomic energy  EATOM  =     10677.41507134
  ---------------------------------------------------
  free energy    TOTEN  =      -627.06049620 eV

  energy without entropy =     -627.06049620  energy(sigma->0) =     -627.06049620
  exchange ACFDT corr.  =        -0.00000000  see jH, gK, PRB 81, 115126


--------------------------------------------------------------------------------------------------------




--------------------------------------- Iteration      1(  15)  ---------------------------------------


    POTLOK:  cpu time    0.8482: real time    0.8574
    SETDIJ:  cpu time    0.9596: real time    0.9620
    TRIAL :  cpu time  171.4834: real time  171.9666
    CORREC:  cpu time    0.0005: real time    0.0005
    CHARGE:  cpu time    0.7576: real time    0.7596
    --------------------------------------------
      LOOP:  cpu time  174.0521: real time  174.5523

 eigenvalue-minimisations  :     0
 total energy-change (2. order) :-0.7259532E-02  (-0.6613381E-02)
 number of electron     254.9999987 magnetization      -2.9999998
 augmentation part       16.4590990 magnetization      -2.1216729

 DIPCOR: dipole corrections for dipol
 direction  3 min pos     1,
 dipolmoment           0.000000      0.000000      0.041949 electrons x Angstroem
 Tr[quadrupol]     -7118.700255

 energy correction for charged system         0.000000 eV
 dipol+quadrupol energy correction           -0.000050 eV
 added-field ion interaction         -0.057340 eV  (added to PSCEN)


 Free energy of the ion-electron system (eV)
  ---------------------------------------------------
  alpha Z        PSCENC =       106.98577931
  Ewald energy   TEWEN  =     41820.02016031
  -Hartree energ DENC   =    -51046.05928632
  -exchange      EXHF   =       583.94215142
  -V(xc)+E(xc)   XCENC  =       663.45537593
  PAW double counting   =     28619.17582069   -28722.38939753
  entropy T*S    EENTRO =        -0.00000000
  eigenvalues    EBANDS =     -3329.61343087
  atomic energy  EATOM  =     10677.41507134
  ---------------------------------------------------
  free energy    TOTEN  =      -627.06775573 eV

  energy without entropy =     -627.06775573  energy(sigma->0) =     -627.06775573
  exchange ACFDT corr.  =        -0.00000000  see jH, gK, PRB 81, 115126


--------------------------------------------------------------------------------------------------------




--------------------------------------- Iteration      1(  16)  ---------------------------------------


    POTLOK:  cpu time    0.8457: real time    0.8519
    SETDIJ:  cpu time    0.9661: real time    0.9686
    TRIAL :  cpu time  171.2989: real time  171.7764
    CORREC:  cpu time    0.0007: real time    0.0007
    CHARGE:  cpu time    0.7574: real time    0.7594
    --------------------------------------------
      LOOP:  cpu time  173.8710: real time  174.3626

 eigenvalue-minimisations  :     0
 total energy-change (2. order) :-0.6353313E-02  (-0.5841243E-02)
 number of electron     254.9999987 magnetization      -2.9999998
 augmentation part       16.4596047 magnetization      -2.1209537

 DIPCOR: dipole corrections for dipol
 direction  3 min pos     1,
 dipolmoment           0.000000      0.000000      0.041029 electrons x Angstroem
 Tr[quadrupol]     -7118.703837

 energy correction for charged system         0.000000 eV
 dipol+quadrupol energy correction           -0.000048 eV
 added-field ion interaction         -0.056082 eV  (added to PSCEN)


 Free energy of the ion-electron system (eV)
  ---------------------------------------------------
  alpha Z        PSCENC =       106.98703911
  Ewald energy   TEWEN  =     41820.02016031
  -Hartree energ DENC   =    -51046.16301580
  -exchange      EXHF   =       583.97089069
  -V(xc)+E(xc)   XCENC  =       663.46928750
  PAW double counting   =     28621.58675446   -28724.81836652
  entropy T*S    EENTRO =        -0.00000000
  eigenvalues    EBANDS =     -3329.54193014
  atomic energy  EATOM  =     10677.41507134
  ---------------------------------------------------
  free energy    TOTEN  =      -627.07410904 eV

  energy without entropy =     -627.07410904  energy(sigma->0) =     -627.07410904
  exchange ACFDT corr.  =        -0.00000000  see jH, gK, PRB 81, 115126


--------------------------------------------------------------------------------------------------------




--------------------------------------- Iteration      1(  17)  ---------------------------------------


    POTLOK:  cpu time    0.8497: real time    0.8524
    SETDIJ:  cpu time    0.9638: real time    0.9666
    TRIAL :  cpu time  171.0905: real time  171.5445
    CORREC:  cpu time    0.0006: real time    0.0006
    CHARGE:  cpu time    0.7592: real time    0.7612
    --------------------------------------------
      LOOP:  cpu time  173.6664: real time  174.1314

 eigenvalue-minimisations  :     0
 total energy-change (2. order) :-0.5637934E-02  (-0.5224028E-02)
 number of electron     254.9999987 magnetization      -2.9999998
 augmentation part       16.4601293 magnetization      -2.1201185

 DIPCOR: dipole corrections for dipol
 direction  3 min pos     1,
 dipolmoment           0.000000      0.000000      0.040237 electrons x Angstroem
 Tr[quadrupol]     -7118.706678

 energy correction for charged system         0.000000 eV
 dipol+quadrupol energy correction           -0.000046 eV
 added-field ion interaction         -0.055000 eV  (added to PSCEN)


 Free energy of the ion-electron system (eV)
  ---------------------------------------------------
  alpha Z        PSCENC =       106.98812368
  Ewald energy   TEWEN  =     41820.02016031
  -Hartree energ DENC   =    -51046.24883408
  -exchange      EXHF   =       583.99709818
  -V(xc)+E(xc)   XCENC  =       663.48209535
  PAW double counting   =     28624.03424448   -28727.28149844
  entropy T*S    EENTRO =        -0.00000000
  eigenvalues    EBANDS =     -3329.48620779
  atomic energy  EATOM  =     10677.41507134
  ---------------------------------------------------
  free energy    TOTEN  =      -627.07974698 eV

  energy without entropy =     -627.07974698  energy(sigma->0) =     -627.07974698
[...]
  energy-cutoff  :      500.00
  volume of cell :     3176.88
      direct lattice vectors                 reciprocal lattice vectors
    12.810000000  0.000000000  0.000000000     0.078064012  0.000000000  0.000000000
     0.000000000 12.400000000  0.000000000     0.000000000  0.080645161  0.000000000
     0.000000000  0.000000000 20.000000000     0.000000000  0.000000000  0.050000000

  length of vectors
    12.810000000 12.400000000 20.000000000     0.078064012  0.080645161  0.050000000


 FORCES acting on ions:
    Electron-Ion                     Ewald-Force                    Non-Local-Force
 -----------------------------------------------------------------------------------------------
   0.612E+01 -.537E+01 0.346E+02   -.603E+01 0.508E+01 -.347E+02   -.650E-01 0.174E+00 0.862E-01
   -.136E+00 -.159E+01 0.422E+02   0.428E+00 0.151E+01 -.423E+02   -.282E+00 0.437E-01 0.498E-01
   0.580E+01 -.186E+00 0.380E+02   -.571E+01 0.163E+00 -.379E+02   -.108E+00 0.307E-01 -.101E+00
   0.150E+02 0.361E+01 0.327E+02   -.152E+02 -.368E+01 -.324E+02   0.260E+00 0.897E-01 -.218E+00
   0.932E+01 0.684E+01 0.221E+02   -.923E+01 -.678E+01 -.221E+02   -.521E-01 -.630E-01 0.658E-01
   0.402E+01 0.699E+01 0.398E+02   -.387E+01 -.734E+01 -.398E+02   -.144E+00 0.312E+00 0.589E-01
   0.492E+01 0.890E+01 0.321E+02   -.485E+01 -.900E+01 -.320E+02   -.108E+00 0.125E+00 -.780E-01
   0.239E+02 0.251E+02 0.316E+01   -.240E+02 -.251E+02 -.278E+01   0.131E+00 -.106E+00 -.404E+00
   0.370E+02 0.578E+02 0.130E+02   -.385E+02 -.604E+02 -.137E+02   0.138E+01 0.296E+01 0.850E+00
   0.166E+02 0.327E+01 0.270E+02   -.166E+02 -.317E+01 -.269E+02   0.126E+00 -.581E-01 -.114E+00
   0.190E+02 0.152E+02 0.330E+02   -.191E+02 -.155E+02 -.332E+02   0.125E+00 0.214E+00 0.176E+00
   0.452E+02 -.444E+02 -.165E+01   -.464E+02 0.475E+02 0.114E+01   0.123E+01 -.327E+01 0.525E+00
   0.957E+01 -.871E+01 0.312E+02   -.953E+01 0.895E+01 -.311E+02   -.203E-01 -.231E+00 -.686E-01
   0.235E+02 -.959E+01 0.244E+02   -.235E+02 0.991E+01 -.246E+02   -.255E-01 -.297E+00 0.147E+00
   0.294E+02 -.236E+02 -.386E+01   -.286E+02 0.234E+02 0.381E+01   -.897E+00 0.288E+00 -.579E-01
   0.139E+02 -.179E+02 0.296E+02   -.137E+02 0.176E+02 -.297E+02   -.251E+00 0.134E+00 0.218E+00
   0.142E+01 -.611E+01 0.441E+02   -.119E+01 0.618E+01 -.442E+02   -.221E+00 -.613E-01 0.733E-01
   0.864E+01 -.716E+01 0.393E+02   -.852E+01 0.724E+01 -.393E+02   -.142E+00 -.574E-01 0.577E-01
   0.122E+02 -.811E+01 0.267E+02   -.123E+02 0.824E+01 -.263E+02   0.768E-01 0.114E-01 -.355E+00
   -.114E+01 -.193E+01 0.663E+02   0.771E+00 0.195E+01 -.661E+02   0.324E+00 -.308E-01 -.130E+00
   0.746E+01 0.685E+01 0.563E+02   -.799E+01 -.715E+01 -.564E+02   0.461E+00 0.305E+00 0.105E+00
   0.589E+01 -.172E+01 0.611E+02   -.611E+01 0.155E+01 -.612E+02   0.222E+00 0.161E+00 0.134E+00
   -.634E+01 0.821E+01 0.802E+02   0.641E+01 -.851E+01 -.803E+02   -.566E-01 0.305E+00 0.173E+00
   -.285E+01 0.190E+02 0.772E+02   0.264E+01 -.195E+02 -.771E+02   0.212E+00 0.550E+00 -.621E-01
   0.413E+02 0.549E+02 0.243E+02   -.435E+02 -.576E+02 -.251E+02   0.235E+01 0.281E+01 0.778E+00
   0.103E+02 0.217E+02 0.615E+02   -.106E+02 -.221E+02 -.617E+02   0.323E+00 0.360E+00 0.178E+00
   -.187E+02 0.258E+02 0.810E+02   0.191E+02 -.267E+02 -.816E+02   -.322E+00 0.696E+00 0.659E+00
   -.363E+02 0.453E+02 0.262E+02   0.377E+02 -.484E+02 -.278E+02   -.149E+01 0.315E+01 0.175E+01
   0.436E+02 -.931E+02 -.710E+02   -.439E+02 0.935E+02 0.701E+02   0.647E+00 -.110E+01 0.165E+01
   0.132E+02 -.457E+02 0.906E+01   -.156E+02 0.486E+02 -.961E+01   0.241E+01 -.289E+01 0.575E+00
   0.894E+01 -.144E+02 0.353E+02   -.905E+01 0.140E+02 -.354E+02   0.189E+00 0.321E+00 0.141E+00
   0.258E+01 -.279E+02 -.604E+01   -.294E+01 0.274E+02 0.612E+01   0.430E+00 0.716E+00 -.189E+00
   -.507E+01 -.143E+02 0.527E+02   0.486E+01 0.145E+02 -.530E+02   0.195E+00 -.123E+00 0.290E+00
   -.655E+01 -.316E+01 0.542E+02   0.671E+01 0.313E+01 -.541E+02   -.167E+00 0.153E-01 -.229E-01
   -.899E+01 0.259E+01 0.725E+02   0.899E+01 -.267E+01 -.723E+02   -.311E-01 0.763E-01 -.107E+00
   -.851E+01 0.931E+00 0.619E+02   0.872E+01 -.863E+00 -.620E+02   -.179E+00 -.616E-01 0.123E+00
   -.300E+01 0.421E+01 0.544E+02   0.326E+01 -.426E+01 -.544E+02   -.250E+00 0.649E-01 0.606E-01
   -.842E+01 0.260E+01 0.597E+02   0.866E+01 -.268E+01 -.596E+02   -.225E+00 0.702E-01 -.396E-01
   -.213E+02 0.102E+02 0.682E+02   0.218E+02 -.104E+02 -.680E+02   -.477E+00 0.213E+00 -.159E+00
   -.111E+02 0.932E+01 0.736E+02   0.114E+02 -.957E+01 -.737E+02   -.251E+00 0.256E+00 0.172E+00
   -.293E+01 0.505E+01 0.530E+02   0.312E+01 -.513E+01 -.530E+02   -.182E+00 0.570E-01 0.843E-01
   -.106E+02 0.367E+01 0.480E+02   0.111E+02 -.354E+01 -.480E+02   -.464E+00 -.110E+00 0.919E-01
   -.617E+02 -.130E+02 0.144E+02   0.653E+02 0.133E+02 -.155E+02   -.366E+01 -.393E+00 0.105E+01
   -.240E+02 0.501E+01 0.529E+02   0.245E+02 -.507E+01 -.531E+02   -.497E+00 0.795E-01 0.187E+00
   -.592E+00 -.211E+01 0.287E+02   0.567E+00 0.225E+01 -.286E+02   -.137E-01 -.168E+00 -.105E+00
   -.556E+01 -.342E+01 0.169E+02   0.556E+01 0.350E+01 -.168E+02   -.347E-04 -.777E-01 -.367E-02
   -.584E+02 0.165E+01 0.115E+02   0.616E+02 -.156E+01 -.124E+02   -.338E+01 0.149E+00 0.890E+00
   -.227E+02 -.366E+01 -.254E+00   0.229E+02 0.385E+01 0.135E+00   -.131E+00 -.224E+00 0.898E-01
   -.117E+01 -.293E+00 0.276E+02   0.132E+01 0.291E+00 -.275E+02   -.154E+00 0.323E-01 -.695E-01
   -.843E+01 -.690E+01 0.396E+02   0.880E+01 0.681E+01 -.396E+02   -.359E+00 0.885E-01 0.808E-01
   -.138E+02 -.111E+02 0.481E+02   0.138E+02 0.113E+02 -.480E+02   -.984E-01 -.191E+00 -.155E+00
   -.195E+02 -.709E+01 0.372E+02   0.200E+02 0.718E+01 -.373E+02   -.392E+00 -.804E-01 0.147E+00
   -.154E+01 -.761E+00 0.471E+02   0.177E+01 0.759E+00 -.471E+02   -.204E+00 0.186E-01 0.338E-01
   0.636E+02 0.168E+02 -.342E+02   -.442E+02 -.166E+02 0.402E+02   -.184E+02 -.287E+00 -.595E+01
   0.952E+01 0.700E+02 -.320E+02   -.191E+02 -.541E+02 0.394E+02   0.914E+01 -.152E+02 -.719E+01
   -.488E+02 -.700E+01 -.556E+02   0.388E+02 0.223E+02 0.620E+02   0.960E+01 -.148E+02 -.636E+01
   0.476E+02 -.138E+03 -.524E+03   -.458E+02 0.131E+03 0.544E+03   -.242E+01 0.715E+01 -.192E+02
   -.163E+02 -.831E+01 -.342E+02   0.545E+01 -.884E+01 0.392E+02   0.106E+02 0.165E+02 -.516E+01
   0.931E+02 0.134E+03 -.562E+03   -.967E+02 -.135E+03 0.560E+03   0.226E+01 0.953E-01 0.181E+01
   -.211E+03 -.367E+02 -.658E+03   0.206E+03 0.377E+02 0.653E+03   0.516E+01 -.783E+00 0.533E+01
 -----------------------------------------------------------------------------------------------
   -.129E+02 0.167E+01 0.308E+02   0.114E-12 -.185E-12 -.341E-12   0.117E+02 -.209E+01 -.274E+02
 
 
 POSITION                                       TOTAL-FORCE (eV/Angst)
 -----------------------------------------------------------------------------------
      2.84363      0.00702      9.84442         0.024365     -0.109389      0.033706
      0.72887      1.24880      9.73492        -0.008309     -0.041003      0.028123
      1.41921      0.00182      9.77858        -0.021274      0.013809      0.013463
      3.55484      1.25965      9.84841         0.072649      0.030388      0.001595
      2.87225      2.52417      9.91027         0.025992     -0.011002      0.013324
      0.71892      3.72944      9.81664        -0.003338     -0.026729      0.028129
      1.44030      2.49851      9.81562        -0.038224      0.028986      0.009359
      3.59438      3.76960     10.09338         0.026706     -0.131027     -0.050172
      2.82730      5.01713     10.16593         0.024608      0.513544      0.120000
      0.67782      6.20962      9.95916         0.084308      0.039306      0.029335
      1.40808      4.97695      9.95437        -0.008223     -0.011204      0.045669
      2.78767      7.43974     10.28961         0.092735     -0.292887      0.046464
      0.67213      8.68047      9.93075         0.018108     -0.005092      0.021683
      1.38258      7.44904     10.03874        -0.051967     -0.000563      0.039148
      3.50117      8.70532     10.34304        -0.217927      0.122434     -0.112004
      2.81844      9.91877     10.03641         0.020175     -0.169223      0.094301
      0.70148     11.15903      9.78157        -0.010587      0.001616      0.038092
      1.39513      9.91694      9.89224        -0.031529      0.014465      0.036545
      3.54126     11.16820      9.96115        -0.031415      0.150863     -0.013914
      7.10348     12.38689      9.74957        -0.027135     -0.014778      0.065456
      4.97320      1.23778      9.79834        -0.048819      0.020525      0.058416
      5.68212     12.39925      9.80688         0.017344      0.004870      0.059840
      7.82976      1.20820      9.65325         0.009795      0.024277      0.049603
      7.12223      2.43323      9.73545         0.016255      0.067967      0.088527
      5.04614      3.70251     10.11052         0.273860      0.177222      0.098852
      5.70308      2.46103      9.83872        -0.020333     -0.018182      0.061821
      7.85906      3.64039      9.82655         0.044720     -0.101710      0.048586
      7.17922      4.80559     10.21649        -0.221315      0.189935      0.202618
      4.88786      8.85429     10.78802         0.396605     -0.807849      0.814204
      7.12143      9.96129     10.21315         0.189604     -0.180175      0.059130
      4.97381     11.17241      9.99798         0.089982     -0.060782      0.098063
      5.68418      9.98276     10.31385         0.083766      0.252057     -0.124654
      7.81675     11.16429      9.87819        -0.005382      0.054424      0.064136
     11.38963     12.39131      9.67049        -0.021161     -0.016319      0.030551
      9.25456      1.21776      9.62196        -0.030885     -0.005931      0.052116
      9.96203     12.38385      9.66665         0.019052      0.008014      0.029959
     12.11165      1.23437      9.66223         0.004413      0.024727      0.035413
     11.40238      2.47086      9.65358        -0.001588     -0.004378      0.037946
      9.27168      3.67681      9.74739        -0.054039     -0.007211      0.068040
      9.97822      2.45320      9.63211        -0.001533      0.020876      0.049870
     12.10283      3.71915      9.73246         0.001168     -0.021215      0.028759
     11.38025      4.95246      9.80938        -0.003606      0.016636      0.044550
      9.21423      6.11013     10.15189        -0.271473     -0.145248      0.042597
      9.95909      4.92533      9.86410         0.039510      0.024519      0.045034
     12.05960      6.20222      9.90666        -0.039012     -0.033001     -0.009158
     11.31511      7.42992      9.97471         0.007973     -0.009001      0.014877
      9.19668      8.71310     10.15569        -0.424464      0.257810      0.030371
      9.87594      7.41616     10.12512         0.101931     -0.046731     -0.029696
     12.05106      8.66629      9.90500        -0.007255      0.039382     -0.002173
     11.36190      9.90990      9.83156        -0.010124     -0.006061      0.032371
      9.23906     11.15663      9.80404        -0.036577     -0.038009      0.036245
      9.93856      9.91530      9.90629         0.055900      0.003675      0.004950
     12.08521     11.14835      9.74104         0.012217      0.023274      0.031880
      3.42234      6.22075     10.45450        -0.561326     -0.108280     -0.470023
      5.82561      4.79386     10.42763         0.386516     -0.572407     -0.391453
      7.87796      5.96468     10.47379         0.467051     -0.803514     -0.523344
      5.37406      8.00090     11.68042        -0.871638      0.872782     -0.868967
      7.85135      8.81011     10.42699         0.693498      0.772085     -0.595772
      5.13102      6.30835     11.18737        -0.415054     -0.122354     -0.013859
      7.09516      7.38159     11.49723         0.194706      0.150790      0.221475
 -----------------------------------------------------------------------------------
    total drift:                               -0.002066     -0.001346      0.000648


--------------------------------------------------------------------------------------------------------



  FREE ENERGIE OF THE ION-ELECTRON SYSTEM (eV)
  ---------------------------------------------------
  free  energy   TOTEN  =      -627.14755914 eV

  energy  without entropy=     -627.14755914  energy(sigma->0) =     -627.14755914
 


--------------------------------------------------------------------------------------------------------


    POTLOK:  cpu time    1.8425: real time    1.8503


--------------------------------------------------------------------------------------------------------


 stress matrix after NEB project (eV)
    -34.09950    -10.23003     -0.94790
    -10.23014    -41.43946      0.68659
     -0.94857      0.68988     -1.91578
  FORCES: max atom, RMS     1.508842    0.392767
  FORCE total and by dimension    3.042362    0.872782
  Stress total and by dimension   55.639285   41.439465
 writing wavefunctions
     LOOP+:  cpu time17794.0580: real time17851.6208
 vacuum level on the upper side and lower side of the slab         1.567         1.532
    4ORBIT:  cpu time    0.0000: real time    0.0000
 


 total charge     
 
# of ion       s       p       d       tot
------------------------------------------
    1        0.866   1.755   0.000   2.621
    2        0.865   1.756   0.000   2.621
    3        0.864   1.775   0.000   2.639
    4        0.861   1.769   0.000   2.631
    5        0.860   1.733   0.000   2.593
    6        0.866   1.761   0.000   2.627
    7        0.860   1.766   0.000   2.626
    8        0.847   1.735   0.000   2.582
    9        0.855   1.702   0.000   2.557
   10        0.867   1.756   0.000   2.623
   11        0.863   1.770   0.000   2.633
   12        0.856   1.708   0.000   2.564
   13        0.866   1.760   0.000   2.626
   14        0.867   1.782   0.000   2.649
   15        0.857   1.753   0.000   2.610
   16        0.865   1.747   0.000   2.612
   17        0.866   1.761   0.000   2.627
   18        0.864   1.770   0.000   2.634
   19        0.859   1.769   0.000   2.628
   20        0.869   1.777   0.000   2.646
   21        0.870   1.771   0.000   2.641
   22        0.866   1.777   0.000   2.643
   23        0.868   1.786   0.000   2.654
   24        0.872   1.782   0.000   2.654
   25        0.857   1.712   0.000   2.568
   26        0.867   1.783   0.000   2.650
   27        0.874   1.817   0.000   2.691
   28        0.861   1.726   0.000   2.587
   29        0.867   1.713   0.000   2.580
   30        0.858   1.719   0.000   2.577
   31        0.868   1.759   0.000   2.627
   32        0.859   1.769   0.000   2.628
   33        0.868   1.784   0.000   2.652
   34        0.866   1.760   0.000   2.626
   35        0.868   1.768   0.000   2.635
   36        0.865   1.777   0.000   2.642
   37        0.864   1.768   0.000   2.632
   38        0.868   1.764   0.000   2.632
   39        0.871   1.776   0.000   2.647
   40        0.867   1.782   0.000   2.649
   41        0.863   1.768   0.000   2.632
   42        0.868   1.765   0.000   2.633
   43        0.856   1.699   0.000   2.554
   44        0.866   1.784   0.000   2.650
   45        0.862   1.774   0.000   2.636
   46        0.860   1.733   0.000   2.593
   47        0.856   1.701   0.000   2.557
   48        0.845   1.738   0.000   2.583
   49        0.862   1.769   0.000   2.631
   50        0.867   1.762   0.000   2.629
   51        0.868   1.762   0.000   2.630
   52        0.865   1.778   0.000   2.643
   53        0.864   1.770   0.000   2.634
   54        1.230   2.672   0.000   3.902
   55        1.231   2.691   0.000   3.922
   56        1.229   2.702   0.000   3.930
   57        1.260   2.597   0.000   3.857
   58        1.233   2.692   0.000   3.925
   59        0.528   0.681   8.538   9.747
   60        0.463   0.579   6.238   7.280
--------------------------------------------------
tot         52.945 107.814  14.776 175.536
 


 magnetization (x)
 
# of ion       s       p       d       tot
------------------------------------------
    1       -0.000  -0.001   0.000  -0.001
    2        0.000   0.000   0.000   0.000
    3       -0.000  -0.001   0.000  -0.001
    4       -0.000  -0.000   0.000  -0.000
    5        0.000   0.000   0.000   0.000
    6        0.000  -0.000   0.000  -0.000
    7       -0.000  -0.001   0.000  -0.001
    8        0.000   0.000   0.000   0.000
    9       -0.000  -0.004   0.000  -0.005
   10       -0.000  -0.002   0.000  -0.002
   11        0.000   0.001   0.000   0.001
   12       -0.001  -0.006   0.000  -0.006
   13        0.000  -0.001   0.000  -0.001
   14        0.001   0.001   0.000   0.002
   15       -0.000   0.002   0.000   0.002
   16       -0.000  -0.001   0.000  -0.001
   17        0.000   0.000   0.000   0.000
   18       -0.000  -0.000   0.000  -0.000
   19       -0.000  -0.000   0.000  -0.001
   20       -0.000  -0.001   0.000  -0.001
   21       -0.000  -0.000   0.000  -0.000
   22       -0.000  -0.000   0.000  -0.000
   23       -0.000  -0.001   0.000  -0.001
   24       -0.000  -0.001   0.000  -0.001
   25       -0.000  -0.003   0.000  -0.003
   26       -0.000  -0.000   0.000  -0.000
   27        0.000   0.001   0.000   0.001
   28       -0.000  -0.004   0.000  -0.004
   29       -0.002  -0.025   0.000  -0.027
   30       -0.000  -0.002   0.000  -0.003
   31       -0.000  -0.001   0.000  -0.001
   32       -0.000  -0.002   0.000  -0.002
   33       -0.001  -0.002   0.000  -0.003
   34        0.000  -0.000   0.000  -0.000
   35       -0.000  -0.000   0.000  -0.000
   36       -0.000  -0.001   0.000  -0.001
   37       -0.000  -0.001   0.000  -0.001
   38        0.000   0.000   0.000   0.000
   39       -0.000  -0.001   0.000  -0.001
   40        0.000  -0.000   0.000  -0.000
   41       -0.000  -0.000   0.000  -0.000
   42       -0.000  -0.000   0.000  -0.001
   43       -0.001  -0.003   0.000  -0.004
   44       -0.000  -0.001   0.000  -0.001
   45       -0.000  -0.001   0.000  -0.001
   46        0.000   0.001   0.000   0.001
   47       -0.001  -0.000   0.000  -0.001
   48       -0.001  -0.009   0.000  -0.010
   49       -0.000  -0.004   0.000  -0.004
   50       -0.000   0.000   0.000   0.000
   51        0.000   0.001   0.000   0.001
   52       -0.001  -0.006   0.000  -0.006
   53       -0.000  -0.001   0.000  -0.001
   54        0.007   0.030   0.000   0.037
   55       -0.001  -0.005   0.000  -0.006
   56        0.002   0.001   0.000   0.003
   57        0.001   0.004   0.000   0.005
   58       -0.007  -0.033   0.000  -0.040
   59        0.021   0.035   0.411   0.466
   60       -0.029  -0.056  -3.076  -3.161
--------------------------------------------------
tot         -0.015  -0.107  -2.665  -2.786
 

 total amount of memory used by VASP MPI-rank0   154787. kBytes
=======================================================================

   base      :      30000. kBytes
   nonl-proj :       4340. kBytes
   fftplans  :      11188. kBytes
   grid      :      29312. kBytes
   one-center:         62. kBytes
   HF        :         23. kBytes
   nonlr-proj:      15935. kBytes
   wavefun   :      63927. kBytes
 
  
  
 General timing and accounting informations for this job:
 ========================================================
  
                  Total CPU time used (sec):    17844.898
                            User time (sec):    17777.709
                          System time (sec):       67.190
                         Elapsed time (sec):    17909.635
  
                   Maximum memory used (kb):      399548.
                   Average memory used (kb):           0.
  
                          Minor page faults:      1224256
                          Major page faults:            1
                 Voluntary context switches:       275240
