 vasp.5.4.4.18Apr17-6-g9f103f2a35 (build Feb 25 2019 10:51:38) complex          
  
 executed on             LinuxIFC date 2022.01.27  12:28:10
 running on   32 total cores
 distrk:  each k-point on   32 cores,    1 groups
 distr:  one band on NCORES_PER_BAND=  32 cores,    1 groups


--------------------------------------------------------------------------------------------------------


 INCAR:
 POTCAR:    PAW_PBE C 08Apr2002                   
 POTCAR:    PAW_PBE N 08Apr2002                   
 POTCAR:    PAW_PBE Fe 06Sep2000                  
 POTCAR:    PAW_PBE Zn 06Sep2000                  

 ----------------------------------------------------------------------------- 
|                                                                             |
|           W    W    AA    RRRRR   N    N  II  N    N   GGGG   !!!           |
|           W    W   A  A   R    R  NN   N  II  NN   N  G    G  !!!           |
|           W    W  A    A  R    R  N N  N  II  N N  N  G       !!!           |
|           W WW W  AAAAAA  RRRRR   N  N N  II  N  N N  G  GGG   !            |
|           WW  WW  A    A  R   R   N   NN  II  N   NN  G    G                |
|           W    W  A    A  R    R  N    N  II  N    N   GGGG   !!!           |
|                                                                             |
|      For optimal performance we recommend to set                            |
|        NCORE= 4 - approx SQRT( number of cores)                             |
|      NCORE specifies how many cores store one orbital (NPAR=cpu/NCORE).     |
|      This setting can  greatly improve the performance of VASP for DFT.     |
|      The default,   NCORE=1            might be grossly inefficient         |
|      on modern multi-core architectures or massively parallel machines.     |
|      Do your own testing !!!!                                               |
|      Unfortunately you need to use the default for GW and RPA calculations. |
|      (for HF NCORE is supported but not extensively tested yet)             |
|                                                                             |
 ----------------------------------------------------------------------------- 

 POTCAR:    PAW_PBE C 08Apr2002                   
   VRHFIN =C: s2p2                                                              
   LEXCH  = PE                                                                  
   EATOM  =   147.1560 eV,   10.8157 Ry                                         
                                                                                
   TITEL  = PAW_PBE C 08Apr2002                                                 
   LULTRA =        F    use ultrasoft PP ?                                      
   IUNSCR =        1    unscreen: 0-lin 1-nonlin 2-no                           
   RPACOR =    1.200    partial core radius                                     
   POMASS =   12.011; ZVAL   =    4.000    mass and valenz                      
   RCORE  =    1.500    outmost cutoff radius                                   
   RWIGS  =    1.630; RWIGS  =    0.863    wigner-seitz radius (au A)           
   ENMAX  =  400.000; ENMIN  =  300.000 eV                                      
   ICORE  =        2    local potential                                         
   LCOR   =        T    correct aug charges                                     
   LPAW   =        T    paw PP                                                  
   EAUG   =  644.873                                                            
   DEXC   =    0.000                                                            
   RMAX   =    1.529    core radius for proj-oper                               
   RAUG   =    1.300    factor for augmentation sphere                          
   RDEP   =    1.501    radius for radial grids                                 
   RDEPT  =    1.300    core radius for aug-charge                              
                                                                                
   Atomic configuration                                                         
    4 entries                                                                   
     n  l   j            E        occ.                                          
     1  0  0.50      -273.3789   2.0000                                         
     2  0  0.50       -13.7508   2.0000                                         
     2  1  0.50        -5.2854   2.0000                                         
     3  2  1.50        -5.4423   0.0000                                         
   Description                                                                  
     l       E           TYP  RCUT    TYP  RCUT                                 
     0    -13.7508458     23  1.200                                             
     0     -8.2022199     23  1.200                                             
     1     -5.2854383     23  1.500                                             
     1     34.0145650     23  1.500                                             
     2     -5.4423304      7  1.500                                             
  local pseudopotential read in
  partial core-charges read in
  partial kinetic energy density read in
  atomic valenz-charges read in
  non local Contribution for L=           0  read in
    real space projection operators read in
  non local Contribution for L=           0  read in
    real space projection operators read in
  non local Contribution for L=           1  read in
    real space projection operators read in
  non local Contribution for L=           1  read in
    real space projection operators read in
    PAW grid and wavefunctions read in
 
   number of l-projection  operators is LMAX  =           4
   number of lm-projection operators is LMMAX =           8
 
 POTCAR:    PAW_PBE N 08Apr2002                   
   VRHFIN =N: s2p3                                                              
   LEXCH  = PE                                                                  
   EATOM  =   264.5486 eV,   19.4438 Ry                                         
                                                                                
   TITEL  = PAW_PBE N 08Apr2002                                                 
   LULTRA =        F    use ultrasoft PP ?                                      
   IUNSCR =        1    unscreen: 0-lin 1-nonlin 2-no                           
   RPACOR =    1.200    partial core radius                                     
   POMASS =   14.001; ZVAL   =    5.000    mass and valenz                      
   RCORE  =    1.500    outmost cutoff radius                                   
   RWIGS  =    1.400; RWIGS  =    0.741    wigner-seitz radius (au A)           
   ENMAX  =  400.000; ENMIN  =  300.000 eV                                      
   ICORE  =        2    local potential                                         
   LCOR   =        T    correct aug charges                                     
   LPAW   =        T    paw PP                                                  
   EAUG   =  627.112                                                            
   DEXC   =    0.000                                                            
   RMAX   =    1.529    core radius for proj-oper                               
   RAUG   =    1.300    factor for augmentation sphere                          
   RDEP   =    1.514    radius for radial grids                                 
   RDEPT  =    1.338    core radius for aug-charge                              
                                                                                
   Atomic configuration                                                         
    4 entries                                                                   
     n  l   j            E        occ.                                          
     1  0  0.50      -384.7179   2.0000                                         
     2  0  0.50       -18.5828   2.0000                                         
     2  1  0.50        -7.0898   3.0000                                         
     3  2  1.50        -6.8029   0.0000                                         
   Description                                                                  
     l       E           TYP  RCUT    TYP  RCUT                                 
     0    -18.5828119     23  1.200                                             
     0    -13.5018863     23  1.200                                             
     1     -7.0897853     23  1.500                                             
     1      9.5240782     23  1.500                                             
     2     -6.8029130      7  1.500                                             
  local pseudopotential read in
  partial core-charges read in
  partial kinetic energy density read in
  atomic valenz-charges read in
  non local Contribution for L=           0  read in
    real space projection operators read in
  non local Contribution for L=           0  read in
    real space projection operators read in
  non local Contribution for L=           1  read in
    real space projection operators read in
  non local Contribution for L=           1  read in
    real space projection operators read in
    PAW grid and wavefunctions read in
 
   number of l-projection  operators is LMAX  =           4
   number of lm-projection operators is LMMAX =           8
 
 POTCAR:    PAW_PBE Fe 06Sep2000                  
   VRHFIN =Fe:  d7 s1                                                           
   LEXCH  = PE                                                                  
   EATOM  =   594.3153 eV,   43.6809 Ry                                         
                                                                                
   TITEL  = PAW_PBE Fe 06Sep2000                                                
   LULTRA =        F    use ultrasoft PP ?                                      
   IUNSCR =        1    unscreen: 0-lin 1-nonlin 2-no                           
   RPACOR =    2.000    partial core radius                                     
   POMASS =   55.847; ZVAL   =    8.000    mass and valenz                      
   RCORE  =    2.300    outmost cutoff radius                                   
   RWIGS  =    2.460; RWIGS  =    1.302    wigner-seitz radius (au A)           
   ENMAX  =  267.882; ENMIN  =  200.911 eV                                      
   RCLOC  =    1.701    cutoff for local pot                                    
   LCOR   =        T    correct aug charges                                     
   LPAW   =        T    paw PP                                                  
   EAUG   =  511.368                                                            
   DEXC   =    0.000                                                            
   RMAX   =    2.356    core radius for proj-oper                               
   RAUG   =    1.300    factor for augmentation sphere                          
   RDEP   =    2.442    radius for radial grids                                 
   RDEPT  =    1.890    core radius for aug-charge                              
                                                                                
   Atomic configuration                                                         
    9 entries                                                                   
     n  l   j            E        occ.                                          
     1  0  0.50     -6993.8440   2.0000                                         
     2  0  0.50      -814.6047   2.0000                                         
     2  1  1.50      -693.3689   6.0000                                         
     3  0  0.50       -89.4732   2.0000                                         
     3  1  1.50       -55.6373   6.0000                                         
     3  2  2.50        -3.8151   7.0000                                         
     4  0  0.50        -4.2551   1.0000                                         
     4  1  1.50        -3.4015   0.0000                                         
     4  3  2.50        -1.3606   0.0000                                         
   Description                                                                  
     l       E           TYP  RCUT    TYP  RCUT                                 
     2     -3.8151135     23  2.300                                             
     2     -5.1756961     23  2.300                                             
     0     -4.2550963     23  2.300                                             
     0      7.2035603     23  2.300                                             
     1     -2.7211652     23  2.300                                             
     1     18.4316424     23  2.300                                             
  local pseudopotential read in
  partial core-charges read in
  partial kinetic energy density read in
  atomic valenz-charges read in
  non local Contribution for L=           2  read in
    real space projection operators read in
  non local Contribution for L=           2  read in
    real space projection operators read in
  non local Contribution for L=           0  read in
    real space projection operators read in
  non local Contribution for L=           0  read in
    real space projection operators read in
  non local Contribution for L=           1  read in
    real space projection operators read in
  non local Contribution for L=           1  read in
    real space projection operators read in
    PAW grid and wavefunctions read in
 
   number of l-projection  operators is LMAX  =           6
   number of lm-projection operators is LMMAX =          18
 
 POTCAR:    PAW_PBE Zn 06Sep2000                  
   VRHFIN =Zn: d10 p2                                                           
   LEXCH  = PE                                                                  
   EATOM  =  1748.8345 eV,  128.5357 Ry                                         
                                                                                
   TITEL  = PAW_PBE Zn 06Sep2000                                                
   LULTRA =        F    use ultrasoft PP ?                                      
   IUNSCR =        1    unscreen: 0-lin 1-nonlin 2-no                           
   RPACOR =    2.000    partial core radius                                     
   POMASS =   65.390; ZVAL   =   12.000    mass and valenz                      
   RCORE  =    2.300    outmost cutoff radius                                   
   RWIGS  =    2.400; RWIGS  =    1.270    wigner-seitz radius (au A)           
   ENMAX  =  276.723; ENMIN  =  207.542 eV                                      
   RCLOC  =    1.828    cutoff for local pot                                    
   LCOR   =        T    correct aug charges                                     
   LPAW   =        T    paw PP                                                  
   EAUG   =  575.892                                                            
   DEXC   =    0.000                                                            
   RMAX   =    2.347    core radius for proj-oper                               
   RAUG   =    1.300    factor for augmentation sphere                          
   RDEP   =    2.324    radius for radial grids                                 
   RDEPT  =    1.788    core radius for aug-charge                              
                                                                                
   Atomic configuration                                                         
    9 entries                                                                   
     n  l   j            E        occ.                                          
     1  0  0.50     -9524.6913   2.0000                                         
     2  0  0.50     -1158.1882   2.0000                                         
     2  1  1.50     -1003.8506   6.0000                                         
     3  0  0.50      -129.2194   2.0000                                         
     3  1  1.50       -83.3890   6.0000                                         
     3  2  2.50       -10.1410  10.0000                                         
     4  0  0.50        -5.9785   2.0000                                         
     4  1  0.50        -4.0817   0.0000                                         
     4  3  2.50        -1.3606   0.0000                                         
   Description                                                                  
     l       E           TYP  RCUT    TYP  RCUT                                 
     2    -10.1410010     23  2.300                                             
     2    -11.5015836     23  2.300                                             
     0     -5.9785163     23  2.300                                             
     0      1.1858015     23  2.300                                             
     1     -2.7211652     23  2.300                                             
     1     13.2444212     23  2.300                                             
  local pseudopotential read in
  partial core-charges read in
  partial kinetic energy density read in
  atomic valenz-charges read in
  non local Contribution for L=           2  read in
    real space projection operators read in
  non local Contribution for L=           2  read in
    real space projection operators read in
  non local Contribution for L=           0  read in
    real space projection operators read in
  non local Contribution for L=           0  read in
    real space projection operators read in
  non local Contribution for L=           1  read in
    real space projection operators read in
  non local Contribution for L=           1  read in
    real space projection operators read in
    PAW grid and wavefunctions read in
 
   number of l-projection  operators is LMAX  =           6
   number of lm-projection operators is LMMAX =          18
 

 ----------------------------------------------------------------------------- 
|                                                                             |
|  ADVICE TO THIS USER RUNNING 'VASP/VAMP'   (HEAR YOUR MASTER'S VOICE ...):  |
|                                                                             |
|      You have a (more or less) 'large supercell' and for larger cells       |
|      it might be more efficient to use real space projection opertators     |
|      So try LREAL= Auto  in the INCAR   file.                               |
|      Mind:          For very  accurate calculation you might also keep the  |
|      reciprocal projection scheme          (i.e. LREAL=.FALSE.)             |
|                                                                             |
 ----------------------------------------------------------------------------- 

  PAW_PBE C 08Apr2002                   :
 energy of atom  1       EATOM= -147.1560
 kinetic energy error for atom=    0.0076 (will be added to EATOM!!)
  PAW_PBE N 08Apr2002                   :
 energy of atom  2       EATOM= -264.5486
 kinetic energy error for atom=    0.0138 (will be added to EATOM!!)
  PAW_PBE Fe 06Sep2000                  :
 energy of atom  3       EATOM= -594.3153
 kinetic energy error for atom=    0.0026 (will be added to EATOM!!)
  PAW_PBE Zn 06Sep2000                  :
 energy of atom  4       EATOM=-1748.8345
 kinetic energy error for atom=    0.0029 (will be added to EATOM!!)
 
 
 POSCAR:  C  N Fe Zn                             
  positions in cartesian coordinates
  No initial velocities read in
 exchange correlation table for  LEXCH =        8
   RHO(1)=    0.500       N(1)  =     2000
   RHO(2)=  100.500       N(2)  =     4000

 VTST: version 3.2, (02/03/18)

 CHAIN: initializing optimizer
 
 OPT: Using VASP Conjugate-Gradient optimizer
 CHAIN: Read ICHAIN            0
 
 POSCAR:  C  N Fe Zn                             
  positions in cartesian coordinates
  No initial velocities read in
 


--------------------------------------------------------------------------------------------------------


 ion  position               nearest neighbor table
   1  0.220  0.000  0.500-  20 1.42   4 1.42   3 1.42
   2  0.055  0.101  0.500-  34 1.43   3 1.43   7 1.43
   3  0.109  0.000  0.500-   1 1.42   2 1.43  18 1.43
   4  0.276  0.099  0.500-   5 1.42   1 1.42  22 1.43
   5  0.223  0.200  0.500-   4 1.42   7 1.44   8 1.44
   6  0.055  0.300  0.500-   7 1.43  11 1.43  38 1.44
   7  0.111  0.201  0.500-   6 1.43   2 1.43   5 1.44
   8  0.283  0.298  0.500-  51 1.40   5 1.44   9 1.44
   9  0.226  0.398  0.500-   8 1.44  11 1.44  12 1.45
  10  0.056  0.500  0.500-  11 1.44  15 1.45  42 1.45
  11  0.113  0.399  0.500-   6 1.43   9 1.44  10 1.44
  12  0.284  0.498  0.500-  53 1.32   9 1.45  13 1.47
  13  0.227  0.601  0.500-  16 1.45  15 1.45  12 1.47
  14  0.055  0.699  0.500-  19 1.43  15 1.44  46 1.44
  15  0.114  0.600  0.500-  14 1.44  10 1.45  13 1.45
  16  0.282  0.703  0.500-  55 1.38  17 1.44  13 1.45
  17  0.222  0.801  0.500-  20 1.42  19 1.43  16 1.44
  18  0.055  0.900  0.500-  50 1.42   3 1.43  19 1.43
  19  0.110  0.799  0.500-  17 1.43  14 1.43  18 1.43
  20  0.276  0.901  0.500-   1 1.42  17 1.42  28 1.43
  21  0.555  0.001  0.500-  30 1.41  24 1.41  23 1.42
  22  0.388  0.098  0.500-  26 1.40  23 1.41   4 1.43
  23  0.444  0.001  0.500-  28 1.41  22 1.41  21 1.42
  24  0.611  0.098  0.500-  25 1.40  21 1.41  32 1.43
  25  0.556  0.196  0.500-  52 1.37  24 1.40  26 1.44
  26  0.443  0.196  0.500-  51 1.37  22 1.40  25 1.44
  27  0.557  0.805  0.500-  56 1.35  30 1.40  29 1.47
  28  0.388  0.903  0.500-  29 1.40  23 1.41  20 1.43
  29  0.442  0.805  0.500-  55 1.35  28 1.40  27 1.47
  30  0.611  0.903  0.500-  27 1.40  21 1.41  48 1.43
  31  0.889  0.000  0.500-  33 1.42  34 1.43  50 1.43
  32  0.722  0.099  0.500-  37 1.42  33 1.42  24 1.43
  33  0.778  0.000  0.500-  48 1.42  32 1.42  31 1.42
  34  0.943  0.101  0.500-   2 1.43  31 1.43  35 1.43
  35  0.887  0.201  0.500-  38 1.43  34 1.43  37 1.44
  36  0.716  0.298  0.500-  52 1.40  37 1.44  41 1.44
  37  0.775  0.199  0.500-  32 1.42  35 1.44  36 1.44
  38  0.943  0.300  0.500-  35 1.43  39 1.43   6 1.44
  39  0.885  0.399  0.500-  38 1.43  41 1.44  42 1.44
  40  0.714  0.498  0.500-  54 1.32  41 1.45  45 1.47
  41  0.773  0.398  0.500-  36 1.44  39 1.44  40 1.45
  42  0.943  0.500  0.500-  39 1.44  43 1.45  10 1.45
  43  0.884  0.600  0.500-  46 1.44  42 1.45  45 1.45
  44  0.717  0.703  0.500-  56 1.38  49 1.44  45 1.45
  45  0.771  0.601  0.500-  44 1.45  43 1.45  40 1.47
  46  0.943  0.699  0.500-  47 1.43  43 1.44  14 1.44
  47  0.888  0.799  0.500-  49 1.43  46 1.43  50 1.43
  48  0.722  0.901  0.500-  33 1.42  49 1.42  30 1.43
  49  0.776  0.801  0.500-  48 1.42  47 1.43  44 1.44
  50  0.944  0.900  0.500-  18 1.42  31 1.43  47 1.43
  51  0.392  0.293  0.500-  26 1.37   8 1.40  57 1.92
  52  0.607  0.293  0.500-  25 1.37  36 1.40  57 1.92
  53  0.387  0.494  0.499-  12 1.32  57 1.84  58 1.94
  54  0.611  0.494  0.499-  40 1.32  57 1.84  58 1.94
  55  0.389  0.711  0.500-  29 1.35  16 1.38  58 1.98
  56  0.610  0.711  0.500-  27 1.35  44 1.38  58 1.98
  57  0.499  0.401  0.499-  54 1.84  53 1.84  51 1.92  52 1.92  58 2.46
  58  0.499  0.599  0.500-  53 1.94  54 1.94  56 1.98  55 1.98  57 2.46
 
  LATTYP: Found a simple orthorhombic cell.
 ALAT       =    12.4000000000
 B/A-ratio  =     1.0330645161
 C/A-ratio  =     1.6129032258
  
  Lattice vectors:
  
 A1 = (   0.0000000000, -12.4000000000,   0.0000000000)
 A2 = ( -12.8100000000,   0.0000000000,   0.0000000000)
 A3 = (   0.0000000000,   0.0000000000, -20.0000000000)


Analysis of symmetry for initial positions (statically):
=====================================================================
 Subroutine PRICEL returns:
 Original cell was already a primitive cell.
 

 Routine SETGRP: Setting up the symmetry group for a 
 simple orthorhombic supercell.


 Subroutine GETGRP returns: Found  1 space group operations
 (whereof  1 operations were pure point group operations)
 out of a pool of  8 trial point group operations.


The static configuration has the point symmetry C_1 .


Analysis of symmetry for dynamics (positions and initial velocities):
=====================================================================
 Subroutine PRICEL returns:
 Original cell was already a primitive cell.
 

 Routine SETGRP: Setting up the symmetry group for a 
 simple orthorhombic supercell.


 Subroutine GETGRP returns: Found  1 space group operations
 (whereof  1 operations were pure point group operations)
 out of a pool of  8 trial point group operations.


The dynamic configuration has the point symmetry C_1 .


Analysis of structural, dynamic, and magnetic symmetry:
=====================================================================
 Subroutine PRICEL returns:
 Original cell was already a primitive cell.
 

 Routine SETGRP: Setting up the symmetry group for a 
 simple orthorhombic supercell.


 Subroutine GETGRP returns: Found  1 space group operations
 (whereof  1 operations were pure point group operations)
 out of a pool of  8 trial point group operations.


The magnetic configuration has the point symmetry C_1 .


 Subroutine INISYM returns: Found  1 space group operations
 (whereof  1 operations are pure point group operations),
 and found     1 'primitive' translations

 
 
 KPOINTS: KPOINTS created by Atomic Simulation Env

Automatic generation of k-mesh.
Space group operators:
 irot       det(A)        alpha          n_x          n_y          n_z        tau_x        tau_y        tau_z
    1     1.000000     0.000000     1.000000     0.000000     0.000000     0.000000     0.000000     0.000000
 
 Subroutine IBZKPT returns following result:
 ===========================================
 
 Found      2 irreducible k-points:
 
 Following reciprocal coordinates:
            Coordinates               Weight
  0.250000  0.250000  0.000000      2.000000
 -0.250000  0.250000  0.000000      2.000000
 
 Following cartesian coordinates:
            Coordinates               Weight
  0.019516  0.020161  0.000000      2.000000
 -0.019516  0.020161  0.000000      2.000000
 
 
 Subroutine IBZKPT_HF returns following result:
 ==============================================
 
 Found      4 k-points in 1st BZ
 the following      4 k-points will be used (e.g. in the exchange kernel)
 Following reciprocal coordinates:   # in IRBZ
  0.250000  0.250000  0.000000    0.25000000   1 t-inv F
 -0.250000  0.250000  0.000000    0.25000000   2 t-inv F
 -0.250000 -0.250000  0.000000    0.25000000   1 t-inv T
  0.250000 -0.250000  0.000000    0.25000000   2 t-inv T


--------------------------------------------------------------------------------------------------------




 Dimension of arrays:
   k-points           NKPTS =      2   k-points in BZ     NKDIM =      4   number of bands    NBANDS=    159
   number of dos      NEDOS =    301   number of ions     NIONS =     58
   non local maximal  LDIM  =      6   non local SUM 2l+1 LMDIM =     18
   total plane-waves  NPLWV = ******
   max r-space proj   IRMAX =      1   max aug-charges    IRDMAX=  14730
   dimension x,y,z NGX =    96 NGY =   90 NGZ =  150
   dimension x,y,z NGXF=   192 NGYF=  180 NGZF=  300
   support grid    NGXF=   192 NGYF=  180 NGZF=  300
   ions per type =              50   6   1   1
   NGX,Y,Z   is equivalent  to a cutoff of  12.46, 12.07, 12.47 a.u.
   NGXF,Y,Z  is equivalent  to a cutoff of  24.92, 24.13, 24.94 a.u.

 SYSTEM =  unknown system                          
 POSCAR =   C  N Fe Zn                             

 Startparameter for this run:
   NWRITE =      2    write-flag & timer
   PREC   = accura    normal or accurate (medium, high low for compatibility)
   ISTART =      1    job   : 0-new  1-cont  2-samecut
   ICHARG =      0    charge: 1-file 2-atom 10-const
   ISPIN  =      2    spin polarized calculation?
   LNONCOLLINEAR =      F non collinear calculations
   LSORBIT =      F    spin-orbit coupling
   INIWAV =      1    electr: 0-lowe 1-rand  2-diag
   LASPH  =      T    aspherical Exc in radial PAW
   METAGGA=      F    non-selfconsistent MetaGGA calc.

 Electronic Relaxation 1
   ENCUT  =  500.0 eV  36.75 Ry    6.06 a.u.  23.36 22.61 36.46*2*pi/ulx,y,z
   ENINI  =  500.0     initial cutoff
   ENAUG  =  644.9 eV  augmentation charge cutoff
   NELM   =    250;   NELMIN=  2; NELMDL=  0     # of ELM steps 
   EDIFF  = 0.1E-03   stopping-criterion for ELM
   LREAL  =      F    real-space projection
   NLSPLINE    = F    spline interpolate recip. space projectors
   LCOMPAT=      F    compatible to vasp.4.4
   GGA_COMPAT  = T    GGA compatible to vasp.4.4-vasp.4.6
   LMAXPAW     = -100 max onsite density
   LMAXMIX     =    2 max onsite mixed and CHGCAR
   VOSKOWN=      0    Vosko Wilk Nusair interpolation
   ROPT   =    0.00000   0.00000   0.00000   0.00000
 Ionic relaxation
   EDIFFG = -.3E-01   stopping-criterion for IOM
   NSW    =      0    number of steps for IOM
   NBLOCK =      1;   KBLOCK =      1    inner block; outer block 
   IBRION =     -1    ionic relax: 0-MD 1-quasi-New 2-CG
   NFREE  =      1    steps in history (QN), initial steepest desc. (CG)
   ISIF   =      2    stress and relaxation
   IWAVPR =     10    prediction:  0-non 1-charg 2-wave 3-comb
   ISYM   =      3    0-nonsym 1-usesym 2-fastsym
   LCORR  =      T    Harris-Foulkes like correction to forces

   POTIM  = 0.5000    time-step for ionic-motion
   TEIN   =    0.0    initial temperature
   TEBEG  =    0.0;   TEEND  =   0.0 temperature during run
   SMASS  =  -3.00    Nose mass-parameter (am)
   estimated Nose-frequenzy (Omega)   =  0.10E-29 period in steps =****** mass=  -0.375E-26a.u.
   SCALEE = 1.0000    scale energy and forces
   NPACO  =    256;   APACO  = 16.0  distance and # of slots for P.C.
   PSTRESS=    0.0 pullay stress

  Mass of Ions in am
   POMASS =  12.01 14.00 55.85 65.39
  Ionic Valenz
   ZVAL   =   4.00  5.00  8.00 12.00
  Atomic Wigner-Seitz radii
   RWIGS  =  -1.00 -1.00 -1.00 -1.00
  virtual crystal weights 
   VCA    =   1.00  1.00  1.00  1.00
   NELECT =     250.0000    total number of electrons
   NUPDOWN=      -1.0000    fix difference up-down

 DOS related values:
   EMIN   =  10.00;   EMAX   =-10.00  energy-range for DOS
   EFERMI =   0.00
   ISMEAR =     0;   SIGMA  =   0.10  broadening in eV -4-tet -1-fermi 0-gaus

 Electronic relaxation 2 (details)
   IALGO  =     53    algorithm
   LDIAG  =      T    sub-space diagonalisation (order eigenvalues)
   LSUBROT=      F    optimize rotation matrix (better conditioning)
   TURBO    =      0    0=normal 1=particle mesh
   IRESTART =      0    0=no restart 2=restart with 2 vectors
   NREBOOT  =      0    no. of reboots
   NMIN     =      0    reboot dimension
   EREF     =   0.00    reference energy to select bands
   IMIX   =      4    mixing-type and parameters
     AMIX     =   0.40;   BMIX     =  1.00
     AMIX_MAG =   1.60;   BMIX_MAG =  1.00
     AMIN     =   0.10
     WC   =   100.;   INIMIX=   1;  MIXPRE=   1;  MAXMIX= -45

 Intra band minimization:
   WEIMIN = 0.0000     energy-eigenvalue tresh-hold
   EBREAK =  0.16E-06  absolut break condition
   DEPER  =   0.30     relativ break condition  

   TIME   =   0.20     timestep for ELM

  volume/ion in A,a.u.               =      54.77       369.63
  Fermi-wavevector in a.u.,A,eV,Ry     =   0.701543  1.325725  6.696287  0.492163
  Thomas-Fermi vector in A             =   1.785999
 
 Write flags
   LWAVE        =      T    write WAVECAR
   LDOWNSAMPLE  =      F    k-point downsampling of WAVECAR
   LCHARG       =      T    write CHGCAR
   LVTOT        =      F    write LOCPOT, total local potential
   LVHAR        =      F    write LOCPOT, Hartree potential only
   LELF         =      F    write electronic localiz. function (ELF)
   LORBIT       =     11    0 simple, 1 ext, 2 COOP (PROOUT), +10 PAW based schemes


 Dipole corrections
   LMONO  =      F    monopole corrections only (constant potential shift)
   LDIPOL =      T    correct potential (dipole corrections)
   IDIPOL =      3    1-x, 2-y, 3-z, 4-all directions 
   EPSILON=  1.0000000 bulk dielectric constant

 Exchange correlation treatment:
   GGA     =    PE    GGA type
   LEXCH   =     8    internal setting for exchange type
   VOSKOWN=      0    Vosko Wilk Nusair interpolation
   EXXOEP  =     0    0=HF, 1=EXX-LHF (local Hartree Fock) 2=EXX OEP
   LHFCALC =     T    Hartree Fock is set to
   LSYMGRAD=     F    symmetrize gradient (conserves proper symmetry)
   PRECFOCK=normal    Normal, Fast or Accurate (Low or Medium for compatibility)
   LRHFCALC=     F    long range Hartree Fock
   LRSCOR  =     F    long range correlation only (use DFT for short range part)
   LTHOMAS =     F    Thomas Fermi screening in HF
   LMODELHF=     F    short range full HF, long range fraction AEXX
   ENCUT4O =  -1.0   cutoff for four orbital integrals eV
   LMAXFOCK=     4    L truncation for augmentation on plane wave grid
   LMAXFOCKAE=  -1    L truncation for all-electron charge restoration on plane wave grid
   NMAXFOCKAE=   1    number of basis functions for all-electron charge restoration
   LFOCKAEDFT=     F  apply the AE augmentation even for DFT
   NKREDX  =     1    reduce k-point grid by
   NKREDY  =     1    reduce k-point grid by
   NKREDZ  =     1    reduce k-point grid by
   SHIFTRED=     F    shift reduced grid of Gamma
   HFKIDENT=     F    idential grid for each k-point
   ODDONLY =     F    use only odd q-grid points
   EVENONLY=     F    use only even q-grid points
   HFALPHA =   -1.0000 decay constant for conv. correction
   MCALPHA =    0.0000 extent of test-charge in conv. correction in multipole expansion
   AEXX    =    0.2500 exact exchange contribution
   HFSCREEN=    0.2000 screening length (either q_TF or 0.3 A-1)
   HFSCREENC=   0.2000 screening length for correlation (either q_TF or 0.3 A-1)
   HFRCUT  =    0.0000 spherical cutoff for potential kernel
   ALDAX   =    0.7500 LDA exchange part
   AGGAX   =    0.7500 GGA exchange part
   ALDAC   =    1.0000 LDA correlation
   AGGAC   =    1.0000 GGA correlation
   ENCUTFOCK=  -1.0 apply spherical cutoff to Coloumb kernel
   NBANDSGWLOW=     1    first orbital included in HF term
   NBLOCK_FOCK=    64    blocking factor in FOCK_ACC
 Linear response parameters
   LEPSILON=     F    determine dielectric tensor
   LRPA    =     F    only Hartree local field effects (RPA)
   LNABLA  =     F    use nabla operator in PAW spheres
   LVEL    =     F    velocity operator in full k-point grid
   LINTERFAST=   F  fast interpolation
   KINTER  =     0    interpolate to denser k-point grid
   CSHIFT  =0.1000    complex shift for real part using Kramers Kronig
   OMEGAMAX=  -1.0    maximum frequency
   DEG_THRESHOLD= 0.2000000E-02 threshold for treating states as degnerate
   RTIME   =   -0.100 relaxation time in fs
  (WPLASMAI=    0.000 imaginary part of plasma frequency in eV, 0.658/RTIME)
   DFIELD  = 0.0000000 0.0000000 0.0000000 field for delta impulse in time
 
 Orbital magnetization related:
   ORBITALMAG=     F  switch on orbital magnetization
   LCHIMAG   =     F  perturbation theory with respect to B field
   DQ        =  0.001000  dq finite difference perturbation B field
   LLRAUG    =     F  two centre corrections for induced B field



--------------------------------------------------------------------------------------------------------


 Static calculation
 charge density and potential will be updated during run
 spin polarized calculation
 Conjugate gradient for all bands (Freysoldt, et al. PRB 79, 241103 (2009))
 perform sub-space diagonalisation
    before iterative eigenvector-optimisation
 modified Broyden-mixing scheme, WC =      100.0
 initial mixing is a Kerker type mixing with AMIX =  0.4000 and BMIX =      1.0000
 Hartree-type preconditioning will be used
 using additional bands           34
 reciprocal scheme for non local part
 use partial core corrections
 no Harris-corrections to forces 
 use gradient corrections 
 use of overlap-Matrix (Vanderbilt PP)
 Gauss-broadening in eV      SIGMA  =   0.10


--------------------------------------------------------------------------------------------------------


  energy-cutoff  :      500.00
  volume of cell :     3176.88
      direct lattice vectors                 reciprocal lattice vectors
    12.810000000  0.000000000  0.000000000     0.078064012  0.000000000  0.000000000
     0.000000000 12.400000000  0.000000000     0.000000000  0.080645161  0.000000000
     0.000000000  0.000000000 20.000000000     0.000000000  0.000000000  0.050000000

  length of vectors
    12.810000000 12.400000000 20.000000000     0.078064012  0.080645161  0.050000000


 
 old parameters found on file WAVECAR:
  energy-cutoff  :      500.00
  volume of cell :     3176.88
      direct lattice vectors                 reciprocal lattice vectors
    12.810000000  0.000000000  0.000000000     0.078064012  0.000000000  0.000000000
     0.000000000 12.400000000  0.000000000     0.000000000  0.080645161  0.000000000
     0.000000000  0.000000000 20.000000000     0.000000000  0.000000000  0.050000000

  length of vectors

 
 k-points in units of 2pi/SCALE and weight: KPOINTS created by Atomic Simulation Env
   0.01951600  0.02016129  0.00000000       0.500
  -0.01951600  0.02016129  0.00000000       0.500
 
 k-points in reciprocal lattice and weights: KPOINTS created by Atomic Simulation Env
   0.25000000  0.25000000  0.00000000       0.500
  -0.25000000  0.25000000  0.00000000       0.500
 
 position of ions in fractional coordinates (direct lattice) 
   0.22044995  0.00025078  0.50001670
   0.05496707  0.10061577  0.50001923
   0.10944102  0.00010496  0.50000131
   0.27643979  0.09926225  0.50002491
   0.22316296  0.19956599  0.49998034
   0.05538990  0.30030523  0.50001508
   0.11107911  0.20058405  0.50001309
   0.28263199  0.29778208  0.49986962
   0.22561872  0.39784907  0.49991310
   0.05592144  0.49974181  0.50002317
   0.11307478  0.39935471  0.49999890
   0.28434355  0.49789158  0.49982226
   0.22719808  0.60059216  0.49998966
   0.05546901  0.69882518  0.50002392
   0.11409018  0.59970314  0.50002978
   0.28166512  0.70297426  0.50000518
   0.22193148  0.80090367  0.50001080
   0.05474292  0.89965722  0.49999055
   0.11027877  0.79940776  0.50000462
   0.27609445  0.90115862  0.50001293
   0.55451508  0.00059042  0.50006885
   0.38772266  0.09836491  0.50004560
   0.44390009  0.00062299  0.50007195
   0.61072460  0.09831806  0.50004711
   0.55558242  0.19583595  0.49992953
   0.44290966  0.19585320  0.49992262
   0.55657880  0.80495972  0.50001942
   0.38751636  0.90313083  0.50003189
   0.44175927  0.80499561  0.50001616
   0.61085641  0.90306164  0.50002718
   0.88895210  0.00008119  0.50000015
   0.72200583  0.09919957  0.50002858
   0.77794393  0.00018575  0.50001375
   0.94348802  0.10057214  0.50002053
   0.88742008  0.20053840  0.50001943
   0.71587290  0.29769333  0.49988892
   0.77530951  0.19947578  0.49999221
   0.94314667  0.30025526  0.50001952
   0.88545571  0.39928692  0.50000670
   0.71416020  0.49776096  0.49982745
   0.77291043  0.39773506  0.49992734
   0.94251381  0.49972800  0.50002502
   0.88428513  0.59965542  0.50003160
   0.71666975  0.70286691  0.50001337
   0.77119339  0.60051224  0.49999579
   0.94287519  0.69880248  0.50002361
   0.88803383  0.79936156  0.50000252
   0.72227718  0.90110156  0.50000823
   0.77639199  0.80082053  0.50000937
   0.94357798  0.89961081  0.49998906
   0.39155524  0.29290199  0.49976431
   0.60697115  0.29286879  0.49978419
   0.38746052  0.49376648  0.49948991
   0.61104612  0.49367817  0.49948297
   0.38877664  0.71076472  0.50000136
   0.60954112  0.71070052  0.50001983
   0.49926319  0.40098902  0.49941164
   0.49922677  0.59938282  0.49975719
 
 position of ions in cartesian coordinates  (Angst):
   2.82396388  0.00310970 10.00033396
   0.70412820  1.24763553 10.00038468
   1.40193953  0.00130156 10.00002611
   3.54119366  1.23085195 10.00049824
   2.85871756  2.47461830  9.99960671
   0.70954467  3.72378489 10.00030167
   1.42292336  2.48724220 10.00026185
   3.62051579  3.69249782  9.99739249
   2.89017582  4.93332852  9.99826194
   0.71635361  6.19679842 10.00046345
   1.44848790  4.95199845  9.99997802
   3.64244086  6.17385561  9.99644511
   2.91040734  7.44734273  9.99979329
   0.71055801  8.66543227 10.00047834
   1.46149520  7.43631892 10.00059565
   3.60813020  8.71688087 10.00010369
   2.84294231  9.93120546 10.00021601
   0.70125678 11.15574947  9.99981103
   1.41267111  9.91265623 10.00009245
   3.53676991 11.17436688 10.00025855
   7.10333820  0.00732121 10.00137705
   4.96672723  1.21972484 10.00091206
   5.68636010  0.00772508 10.00143892
   7.82338212  1.21914392 10.00094211
   7.11701086  2.42836580  9.99859066
   5.67367275  2.42857966  9.99845245
   7.12977438  9.98150049 10.00038840
   4.96408455 11.19882230 10.00063787
   5.65893621  9.98194553 10.00032311
   7.82507060 11.19796431 10.00054354
  11.38747640  0.00100671 10.00000308
   9.24889462  1.23007463 10.00057153
   9.96546176  0.00230329 10.00027500
  12.08608149  1.24709453 10.00041056
  11.36785124  2.48667620 10.00038851
   9.17033179  3.69139735  9.99777832
   9.93171488  2.47349965  9.99984411
  12.08170890  3.72316527 10.00039036
  11.34268759  4.95115787 10.00013396
   9.14839214  6.17223593  9.99654890
   9.90098255  4.93191479  9.99854684
  12.07360195  6.19662718 10.00050044
  11.32769247  7.43572724 10.00063205
   9.18053948  8.71554971 10.00026740
   9.87898733  7.44635172  9.99991576
  12.07823121  8.66515072 10.00047215
  11.37571337  9.91208334 10.00005044
   9.25237066 11.17365938 10.00016469
   9.94558143  9.93017451 10.00018741
  12.08723393 11.15517405  9.99978126
   5.01582264  3.63198462  9.99528612
   7.77530039  3.63157301  9.99568380
   4.96336930  6.12270435  9.98979822
   7.82750076  6.12160930  9.98965934
   4.98022872  8.81348252 10.00002720
   7.80822170  8.81268641 10.00039651
   6.39556146  4.97226383  9.98823284
   6.39509495  7.43234696  9.99514378
 


--------------------------------------------------------------------------------------------------------


 k-point  1 :   0.2500 0.2500 0.0000  plane waves:   80679
 k-point  2 :  -0.2500 0.2500 0.0000  plane waves:   80679

 maximum and minimum number of plane-waves per node :      2549     2492

 maximum number of plane-waves:     80679
 maximum index in each direction: 
   IXMAX=   23   IYMAX=   22   IZMAX=   36
   IXMIN=  -23   IYMIN=  -22   IZMIN=  -36


 parallel 3D FFT for wavefunctions:
    minimum data exchange during FFTs selected (reduces bandwidth)
 parallel 3D FFT for charge:
    minimum data exchange during FFTs selected (reduces bandwidth)


 FFT grid for exact exchange (Hartree Fock) 
  NGX = 72; NGY = 70; NGZ =112

 
 Radii for the augmentation spheres in the non-local exchange
 for species   1 augmentation radius   0.874 (default was   0.699)
       energy cutoff for augmentation   2000.0
 for species   2 augmentation radius   0.886 (default was   0.709)
       energy cutoff for augmentation   2000.0
 for species   3 augmentation radius   1.263 (default was   1.010)
       energy cutoff for augmentation   2000.0
 for species   4 augmentation radius   1.190 (default was   0.952)
       energy cutoff for augmentation   2000.0

 real space projection operators:
  total allocation   :       2452.57 KBytes
  max/ min on nodes  :        137.35         41.13

 Maximum index for augmentation-charges in exchange          107
  SETUP_FOCK is finished

 total amount of memory used by VASP MPI-rank0   163919. kBytes
=======================================================================

   base      :      30000. kBytes
   nonl-proj :       5318. kBytes
   fftplans  :      13453. kBytes
   grid      :      34560. kBytes
   one-center:         62. kBytes
   HF        :         23. kBytes
   nonlr-proj:       1651. kBytes
   wavefun   :      78852. kBytes
 
     INWAV:  cpu time    3.6534: real time    3.6548
 Broyden mixing: mesh for mixing (old mesh)
   NGX = 47   NGY = 45   NGZ = 73
  (NGX  =192   NGY  =180   NGZ  =300)
  gives a total of 154395 points

 charge density for first step will be calculated from the start-wavefunctions


--------------------------------------------------------------------------------------------------------


 Maximum index for augmentation-charges          697 (set IRDMAX)


--------------------------------------------------------------------------------------------------------


 initial charge from wavefunction
 First call to EWALD:  gamma=   0.121
 Maximum number of real-space cells 3x 3x 2
 Maximum number of reciprocal cells 2x 2x 4

    FEWALD:  cpu time    0.0036: real time    0.0035


--------------------------------------- Iteration      1(   1)  ---------------------------------------


    POTLOK:  cpu time    1.3053: real time    1.3071
    SETDIJ:  cpu time    2.0903: real time    2.0916
    TRIAL :  cpu time  553.1192: real time  553.4579
    CORREC:  cpu time    0.0023: real time    0.0026
    CHARGE:  cpu time    1.6927: real time    1.6933
    --------------------------------------------
      LOOP:  cpu time  558.2258: real time  558.5715

 eigenvalue-minimisations  :     0
 total energy-change (2. order) :-0.5992627E+03  (-0.3935143E+00)
 number of electron     250.0000022 magnetization       2.3230284
 augmentation part       18.2398073 magnetization       1.7064739

 DIPCOR: dipole corrections for dipol
 direction  3 min pos     1,
 dipolmoment           0.000000      0.000000      0.000491 electrons x Angstroem
 Tr[quadrupol]     -6999.045072

 energy correction for charged system         0.000000 eV
 dipol+quadrupol energy correction           -0.000000 eV
 added-field ion interaction          0.000009 eV  (added to PSCEN)


 Free energy of the ion-electron system (eV)
  ---------------------------------------------------
  alpha Z        PSCENC =       108.15794493
  Ewald energy   TEWEN  =     41208.52069971
  -Hartree energ DENC   =    -50853.75247889
  -exchange      EXHF   =       578.70213134
  -V(xc)+E(xc)   XCENC  =       668.36994357
  PAW double counting   =     27596.67024431   -27802.40106945
  entropy T*S    EENTRO =        -0.03462245
  eigenvalues    EBANDS =     -3280.46173018
  atomic energy  EATOM  =     11176.96681972
  ---------------------------------------------------
  free energy    TOTEN  =      -599.26268628 eV

  energy without entropy =     -599.22806383  energy(sigma->0) =     -599.24537506
  exchange ACFDT corr.  =        -0.03476712  see jH, gK, PRB 81, 115126


--------------------------------------------------------------------------------------------------------




--------------------------------------- Iteration      1(   2)  ---------------------------------------


    POTLOK:  cpu time    1.3139: real time    1.3146
    SETDIJ:  cpu time    2.0875: real time    2.0879
    TRIAL :  cpu time  553.0526: real time  553.2812
    CORREC:  cpu time    0.0023: real time    0.0026
    CHARGE:  cpu time    1.6829: real time    1.6836
    --------------------------------------------
      LOOP:  cpu time  558.1411: real time  558.3717

 eigenvalue-minimisations  :     0
 total energy-change (2. order) :-0.3265674E+00  (-0.3383444E+00)
 number of electron     250.0000023 magnetization       2.3078918
 augmentation part       18.2372606 magnetization       1.7468108

 DIPCOR: dipole corrections for dipol
 direction  3 min pos     1,
 dipolmoment           0.000000      0.000000      0.000667 electrons x Angstroem
 Tr[quadrupol]     -6998.868947

 energy correction for charged system         0.000000 eV
 dipol+quadrupol energy correction           -0.000000 eV
 added-field ion interaction          0.000012 eV  (added to PSCEN)


 Free energy of the ion-electron system (eV)
  ---------------------------------------------------
  alpha Z        PSCENC =       108.15794808
  Ewald energy   TEWEN  =     41208.52069971
  -Hartree energ DENC   =    -50841.76699843
  -exchange      EXHF   =       578.57675722
  -V(xc)+E(xc)   XCENC  =       668.07422073
  PAW double counting   =     27727.08589748   -27934.01423624
  entropy T*S    EENTRO =        -0.03354740
  eigenvalues    EBANDS =     -3291.15573953
  atomic energy  EATOM  =     11176.96681972
  ---------------------------------------------------
  free energy    TOTEN  =      -599.58925372 eV

  energy without entropy =     -599.55570632  energy(sigma->0) =     -599.57248002
  exchange ACFDT corr.  =        -0.03236042  see jH, gK, PRB 81, 115126


--------------------------------------------------------------------------------------------------------




--------------------------------------- Iteration      1(   3)  ---------------------------------------


    POTLOK:  cpu time    1.3193: real time    1.3195
    SETDIJ:  cpu time    2.0843: real time    2.0844
    TRIAL :  cpu time  551.2673: real time  551.4379
    CORREC:  cpu time    0.0024: real time    0.0027
    CHARGE:  cpu time    1.6905: real time    1.6908
    --------------------------------------------
      LOOP:  cpu time  556.3654: real time  556.5400

 eigenvalue-minimisations  :     0
 total energy-change (2. order) :-0.2615814E+00  (-0.1959997E+00)
 number of electron     250.0000023 magnetization       2.2931625
 augmentation part       18.2280726 magnetization       1.7835795

 DIPCOR: dipole corrections for dipol
 direction  3 min pos     1,
 dipolmoment           0.000000      0.000000      0.000835 electrons x Angstroem
 Tr[quadrupol]     -6998.689420

 energy correction for charged system         0.000000 eV
 dipol+quadrupol energy correction           -0.000000 eV
 added-field ion interaction          0.000015 eV  (added to PSCEN)


 Free energy of the ion-electron system (eV)
  ---------------------------------------------------
  alpha Z        PSCENC =       108.15795111
  Ewald energy   TEWEN  =     41208.52069971
  -Hartree energ DENC   =    -50828.44888739
  -exchange      EXHF   =       578.49250952
  -V(xc)+E(xc)   XCENC  =       667.74918511
  PAW double counting   =     27893.84163579   -28101.48720256
  entropy T*S    EENTRO =        -0.03246894
  eigenvalues    EBANDS =     -3303.60999873
  atomic energy  EATOM  =     11176.96681972
  ---------------------------------------------------
  free energy    TOTEN  =      -599.85083513 eV

  energy without entropy =     -599.81836619  energy(sigma->0) =     -599.83460066
  exchange ACFDT corr.  =        -0.02937850  see jH, gK, PRB 81, 115126


--------------------------------------------------------------------------------------------------------




--------------------------------------- Iteration      1(   4)  ---------------------------------------


    POTLOK:  cpu time    1.3231: real time    1.3232
    SETDIJ:  cpu time    2.0881: real time    2.0883
    TRIAL :  cpu time  551.7271: real time  551.8366
    CORREC:  cpu time    0.0023: real time    0.0026
    CHARGE:  cpu time    1.6891: real time    1.6893
    --------------------------------------------
      LOOP:  cpu time  556.8311: real time  556.9415

 eigenvalue-minimisations  :     0
 total energy-change (2. order) :-0.1519961E+00  (-0.1139293E+00)
 number of electron     250.0000023 magnetization       2.2804960
 augmentation part       18.2198268 magnetization       1.8120397

 DIPCOR: dipole corrections for dipol
 direction  3 min pos     1,
 dipolmoment           0.000000      0.000000      0.000861 electrons x Angstroem
 Tr[quadrupol]     -6998.609325

 energy correction for charged system         0.000000 eV
 dipol+quadrupol energy correction           -0.000000 eV
 added-field ion interaction          0.000016 eV  (added to PSCEN)


 Free energy of the ion-electron system (eV)
  ---------------------------------------------------
  alpha Z        PSCENC =       108.15795157
  Ewald energy   TEWEN  =     41208.52069971
  -Hartree energ DENC   =    -50820.49708834
  -exchange      EXHF   =       578.56389587
  -V(xc)+E(xc)   XCENC  =       667.57151886
  PAW double counting   =     28038.62845655   -28245.93644332
  entropy T*S    EENTRO =        -0.03151492
  eigenvalues    EBANDS =     -3311.94617290
  atomic energy  EATOM  =     11176.96681972
  ---------------------------------------------------
  free energy    TOTEN  =      -600.00283122 eV

  energy without entropy =     -599.97131630  energy(sigma->0) =     -599.98707376
  exchange ACFDT corr.  =        -0.02667656  see jH, gK, PRB 81, 115126


--------------------------------------------------------------------------------------------------------




--------------------------------------- Iteration      1(   5)  ---------------------------------------


    POTLOK:  cpu time    1.3199: real time    1.3201
    SETDIJ:  cpu time    2.0832: real time    2.0835
    TRIAL :  cpu time  551.1711: real time  551.2959
    CORREC:  cpu time    0.0023: real time    0.0026
    CHARGE:  cpu time    1.6828: real time    1.6828
    --------------------------------------------
      LOOP:  cpu time  556.2610: real time  556.3865

 eigenvalue-minimisations  :     0
 total energy-change (2. order) :-0.9058124E-01  (-0.7015605E-01)
 number of electron     250.0000023 magnetization       2.2669725
 augmentation part       18.2217382 magnetization       1.8319958

 DIPCOR: dipole corrections for dipol
 direction  3 min pos     1,
 dipolmoment           0.000000      0.000000      0.000842 electrons x Angstroem
 Tr[quadrupol]     -6998.623956

 energy correction for charged system         0.000000 eV
 dipol+quadrupol energy correction           -0.000000 eV
 added-field ion interaction          0.000015 eV  (added to PSCEN)


 Free energy of the ion-electron system (eV)
  ---------------------------------------------------
  alpha Z        PSCENC =       108.15795123
  Ewald energy   TEWEN  =     41208.52069971
  -Hartree energ DENC   =    -50819.17979842
  -exchange      EXHF   =       578.77542251
  -V(xc)+E(xc)   XCENC  =       667.57237297
  PAW double counting   =     28144.46152295   -28351.05187979
  entropy T*S    EENTRO =        -0.03046826
  eigenvalues    EBANDS =     -3314.28500841
  atomic energy  EATOM  =     11176.96681972
  ---------------------------------------------------
  free energy    TOTEN  =      -600.09341246 eV

  energy without entropy =     -600.06294420  energy(sigma->0) =     -600.07817833
  exchange ACFDT corr.  =        -0.02448000  see jH, gK, PRB 81, 115126


--------------------------------------------------------------------------------------------------------




--------------------------------------- Iteration      1(   6)  ---------------------------------------


    POTLOK:  cpu time    1.3180: real time    1.3182
    SETDIJ:  cpu time    2.1144: real time    2.1144
    TRIAL :  cpu time  550.9888: real time  551.1517
    CORREC:  cpu time    0.0022: real time    0.0025
    CHARGE:  cpu time    1.6828: real time    1.6835
    --------------------------------------------
      LOOP:  cpu time  556.1079: real time  556.2719

 eigenvalue-minimisations  :     0
 total energy-change (2. order) :-0.5816889E-01  (-0.4728185E-01)
 number of electron     250.0000023 magnetization       2.2516041
 augmentation part       18.2308876 magnetization       1.8458841

 DIPCOR: dipole corrections for dipol
 direction  3 min pos     1,
 dipolmoment           0.000000      0.000000      0.000846 electrons x Angstroem
 Tr[quadrupol]     -6998.678672

 energy correction for charged system         0.000000 eV
 dipol+quadrupol energy correction           -0.000000 eV
 added-field ion interaction          0.000015 eV  (added to PSCEN)


 Free energy of the ion-electron system (eV)
  ---------------------------------------------------
  alpha Z        PSCENC =       108.15795131
  Ewald energy   TEWEN  =     41208.52069971
  -Hartree energ DENC   =    -50822.22429978
  -exchange      EXHF   =       579.03970009
  -V(xc)+E(xc)   XCENC  =       667.68603275
  PAW double counting   =     28214.15764109   -28420.47890164
  entropy T*S    EENTRO =        -0.02924230
  eigenvalues    EBANDS =     -3311.94675634
  atomic energy  EATOM  =     11176.96681972
  ---------------------------------------------------
  free energy    TOTEN  =      -600.15158134 eV

  energy without entropy =     -600.12233904  energy(sigma->0) =     -600.13696019
  exchange ACFDT corr.  =        -0.02259902  see jH, gK, PRB 81, 115126


--------------------------------------------------------------------------------------------------------




--------------------------------------- Iteration      1(   7)  ---------------------------------------


    POTLOK:  cpu time    1.3172: real time    1.3176
    SETDIJ:  cpu time    2.1214: real time    2.1217
    TRIAL :  cpu time  548.5227: real time  548.6666
    CORREC:  cpu time    0.0020: real time    0.0023
    CHARGE:  cpu time    1.6845: real time    1.6847
    --------------------------------------------
      LOOP:  cpu time  553.6496: real time  553.7947

 eigenvalue-minimisations  :     0
 total energy-change (2. order) :-0.4031102E-01  (-0.3225323E-01)
 number of electron     250.0000023 magnetization       2.2354194
 augmentation part       18.2399934 magnetization       1.8564882

 DIPCOR: dipole corrections for dipol
 direction  3 min pos     1,
 dipolmoment           0.000000      0.000000      0.000879 electrons x Angstroem
 Tr[quadrupol]     -6998.729737

 energy correction for charged system         0.000000 eV
 dipol+quadrupol energy correction           -0.000000 eV
 added-field ion interaction          0.000016 eV  (added to PSCEN)


 Free energy of the ion-electron system (eV)
  ---------------------------------------------------
  alpha Z        PSCENC =       108.15795189
  Ewald energy   TEWEN  =     41208.52069971
  -Hartree energ DENC   =    -50826.29392904
  -exchange      EXHF   =       579.27418901
  -V(xc)+E(xc)   XCENC  =       667.82238760
  PAW double counting   =     28256.33780381   -28462.83735210
  entropy T*S    EENTRO =        -0.02790751
  eigenvalues    EBANDS =     -3308.11122068
  atomic energy  EATOM  =     11176.96681972
  ---------------------------------------------------
  free energy    TOTEN  =      -600.19189236 eV

  energy without entropy =     -600.16398485  energy(sigma->0) =     -600.17793861
  exchange ACFDT corr.  =        -0.02088480  see jH, gK, PRB 81, 115126


--------------------------------------------------------------------------------------------------------




--------------------------------------- Iteration      1(   8)  ---------------------------------------


    POTLOK:  cpu time    1.3158: real time    1.3160
    SETDIJ:  cpu time    2.1178: real time    2.1185
    TRIAL :  cpu time  548.5589: real time  548.6780
    CORREC:  cpu time    0.0022: real time    0.0025
    CHARGE:  cpu time    1.6842: real time    1.6844
    --------------------------------------------
      LOOP:  cpu time  553.6811: real time  553.8016

 eigenvalue-minimisations  :     0
 total energy-change (2. order) :-0.2792770E-01  (-0.2250033E-01)
 number of electron     250.0000023 magnetization       2.2195742
 augmentation part       18.2453403 magnetization       1.8654754

 DIPCOR: dipole corrections for dipol
 direction  3 min pos     1,
 dipolmoment           0.000000      0.000000      0.000923 electrons x Angstroem
 Tr[quadrupol]     -6998.759547

 energy correction for charged system         0.000000 eV
 dipol+quadrupol energy correction           -0.000000 eV
 added-field ion interaction          0.000017 eV  (added to PSCEN)


 Free energy of the ion-electron system (eV)
  ---------------------------------------------------
  alpha Z        PSCENC =       108.15795269
  Ewald energy   TEWEN  =     41208.52069971
  -Hartree energ DENC   =    -50829.17309586
  -exchange      EXHF   =       579.43978201
  -V(xc)+E(xc)   XCENC  =       667.92425225
  PAW double counting   =     28279.51639329   -28486.28544250
  entropy T*S    EENTRO =        -0.02655525
  eigenvalues    EBANDS =     -3305.25927385
  atomic energy  EATOM  =     11176.96681972
  ---------------------------------------------------
  free energy    TOTEN  =      -600.21982007 eV

  energy without entropy =     -600.19326482  energy(sigma->0) =     -600.20654244
  exchange ACFDT corr.  =        -0.01930992  see jH, gK, PRB 81, 115126


--------------------------------------------------------------------------------------------------------




--------------------------------------- Iteration      1(   9)  ---------------------------------------


    POTLOK:  cpu time    1.3100: real time    1.3102
    SETDIJ:  cpu time    2.0835: real time    2.0837
    TRIAL :  cpu time  549.4676: real time  549.5746
    CORREC:  cpu time    0.0022: real time    0.0025
    CHARGE:  cpu time    1.6861: real time    1.6863
    --------------------------------------------
      LOOP:  cpu time  554.5517: real time  554.6595

 eigenvalue-minimisations  :     0
 total energy-change (2. order) :-0.1993454E-01  (-0.1663844E-01)
 number of electron     250.0000023 magnetization       2.2046779
 augmentation part       18.2469999 magnetization       1.8735490

 DIPCOR: dipole corrections for dipol
 direction  3 min pos     1,
 dipolmoment           0.000000      0.000000      0.000963 electrons x Angstroem
 Tr[quadrupol]     -6998.769842

 energy correction for charged system         0.000000 eV
 dipol+quadrupol energy correction           -0.000000 eV
 added-field ion interaction          0.000017 eV  (added to PSCEN)


 Free energy of the ion-electron system (eV)
  ---------------------------------------------------
  alpha Z        PSCENC =       108.15795341
  Ewald energy   TEWEN  =     41208.52069971
  -Hartree energ DENC   =    -50830.37998806
  -exchange      EXHF   =       579.53906874
  -V(xc)+E(xc)   XCENC  =       667.97960265
  PAW double counting   =     28290.79498752   -28497.70563582
  entropy T*S    EENTRO =        -0.02524089
  eigenvalues    EBANDS =     -3304.08670722
  atomic energy  EATOM  =     11176.96681972
  ---------------------------------------------------
  free energy    TOTEN  =      -600.23975461 eV

  energy without entropy =     -600.21451372  energy(sigma->0) =     -600.22713417
  exchange ACFDT corr.  =        -0.01787680  see jH, gK, PRB 81, 115126


--------------------------------------------------------------------------------------------------------




--------------------------------------- Iteration      1(  10)  ---------------------------------------


    POTLOK:  cpu time    1.3086: real time    1.3089
    SETDIJ:  cpu time    2.0858: real time    2.0860
    TRIAL :  cpu time  550.7301: real time  550.8490
    CORREC:  cpu time    0.0023: real time    0.0026
    CHARGE:  cpu time    1.6880: real time    1.6882
    --------------------------------------------
      LOOP:  cpu time  555.8174: real time  555.9391

 eigenvalue-minimisations  :     0
 total energy-change (2. order) :-0.1497798E-01  (-0.1258545E-01)
 number of electron     250.0000023 magnetization       2.1909454
 augmentation part       18.2472044 magnetization       1.8809886

 DIPCOR: dipole corrections for dipol
 direction  3 min pos     1,
 dipolmoment           0.000000      0.000000      0.000989 electrons x Angstroem
 Tr[quadrupol]     -6998.769417

 energy correction for charged system         0.000000 eV
 dipol+quadrupol energy correction           -0.000000 eV
 added-field ion interaction          0.000018 eV  (added to PSCEN)


 Free energy of the ion-electron system (eV)
  ---------------------------------------------------
  alpha Z        PSCENC =       108.15795388
  Ewald energy   TEWEN  =     41208.52069971
  -Hartree energ DENC   =    -50830.42823149
  -exchange      EXHF   =       579.59400555
  -V(xc)+E(xc)   XCENC  =       668.00166872
  PAW double counting   =     28295.37289313   -28502.27107915
  entropy T*S    EENTRO =        -0.02399029
  eigenvalues    EBANDS =     -3304.14422178
  atomic energy  EATOM  =     11176.96681972
  ---------------------------------------------------
  free energy    TOTEN  =      -600.25473259 eV

  energy without entropy =     -600.23074229  energy(sigma->0) =     -600.24273744
  exchange ACFDT corr.  =        -0.01659009  see jH, gK, PRB 81, 115126


--------------------------------------------------------------------------------------------------------




--------------------------------------- Iteration      1(  11)  ---------------------------------------


    POTLOK:  cpu time    1.3040: real time    1.3041
    SETDIJ:  cpu time    2.0852: real time    2.0856
    TRIAL :  cpu time  551.1512: real time  551.2579
    CORREC:  cpu time    0.0023: real time    0.0026
    CHARGE:  cpu time    1.6836: real time    1.6838
    --------------------------------------------
      LOOP:  cpu time  556.2292: real time  556.3408

 eigenvalue-minimisations  :     0
 total energy-change (2. order) :-0.1142703E-01  (-0.9630175E-02)
 number of electron     250.0000023 magnetization       2.1784127
 augmentation part       18.2478975 magnetization       1.8878563

 DIPCOR: dipole corrections for dipol
 direction  3 min pos     1,
 dipolmoment           0.000000      0.000000      0.001003 electrons x Angstroem
 Tr[quadrupol]     -6998.766450

 energy correction for charged system         0.000000 eV
 dipol+quadrupol energy correction           -0.000000 eV
 added-field ion interaction          0.000018 eV  (added to PSCEN)


 Free energy of the ion-electron system (eV)
  ---------------------------------------------------
  alpha Z        PSCENC =       108.15795413
  Ewald energy   TEWEN  =     41208.52069971
  -Hartree energ DENC   =    -50830.11108950
  -exchange      EXHF   =       579.62896517
  -V(xc)+E(xc)   XCENC  =       668.01115584
  PAW double counting   =     28296.76827675   -28503.60631069
  entropy T*S    EENTRO =        -0.02281470
  eigenvalues    EBANDS =     -3304.57864045
  atomic energy  EATOM  =     11176.96681972
  ---------------------------------------------------
  free energy    TOTEN  =      -600.26615961 eV

  energy without entropy =     -600.24334491  energy(sigma->0) =     -600.25475226
  exchange ACFDT corr.  =        -0.01543810  see jH, gK, PRB 81, 115126


--------------------------------------------------------------------------------------------------------




--------------------------------------- Iteration      1(  12)  ---------------------------------------


    POTLOK:  cpu time    1.2999: real time    1.3006
    SETDIJ:  cpu time    2.0818: real time    2.0822
    TRIAL :  cpu time  550.2249: real time  550.3801
    CORREC:  cpu time    0.0023: real time    0.0026
    CHARGE:  cpu time    1.6854: real time    1.6858
    --------------------------------------------
      LOOP:  cpu time  555.2967: real time  555.4536

 eigenvalue-minimisations  :     0
 total energy-change (2. order) :-0.8858642E-02  (-0.7572210E-02)
 number of electron     250.0000023 magnetization       2.1670299
 augmentation part       18.2491868 magnetization       1.8941241

 DIPCOR: dipole corrections for dipol
 direction  3 min pos     1,
 dipolmoment           0.000000      0.000000      0.001014 electrons x Angstroem
 Tr[quadrupol]     -6998.765121

 energy correction for charged system         0.000000 eV
 dipol+quadrupol energy correction           -0.000000 eV
 added-field ion interaction          0.000018 eV  (added to PSCEN)


 Free energy of the ion-electron system (eV)
  ---------------------------------------------------
  alpha Z        PSCENC =       108.15795433
  Ewald energy   TEWEN  =     41208.52069971
  -Hartree energ DENC   =    -50829.95285534
  -exchange      EXHF   =       579.65957851
  -V(xc)+E(xc)   XCENC  =       668.02222955
  PAW double counting   =     28297.18528999   -28504.01679233
  entropy T*S    EENTRO =        -0.02171717
  eigenvalues    EBANDS =     -3304.79512770
  atomic energy  EATOM  =     11176.96681972
  ---------------------------------------------------
  free energy    TOTEN  =      -600.27501826 eV

  energy without entropy =     -600.25330109  energy(sigma->0) =     -600.26415967
  exchange ACFDT corr.  =        -0.01440763  see jH, gK, PRB 81, 115126


--------------------------------------------------------------------------------------------------------




--------------------------------------- Iteration      1(  13)  ---------------------------------------


    POTLOK:  cpu time    1.3007: real time    1.3009
    SETDIJ:  cpu time    2.0814: real time    2.0816
    TRIAL :  cpu time  550.4454: real time  550.5455
    CORREC:  cpu time    0.0023: real time    0.0026
    CHARGE:  cpu time    1.6815: real time    1.6816
    --------------------------------------------
      LOOP:  cpu time  555.5140: real time  555.6148

 eigenvalue-minimisations  :     0
 total energy-change (2. order) :-0.7034590E-02  (-0.6055657E-02)
 number of electron     250.0000023 magnetization       2.1567083
 augmentation part       18.2504490 magnetization       1.8997937

 DIPCOR: dipole corrections for dipol
 direction  3 min pos     1,
 dipolmoment           0.000000      0.000000      0.001031 electrons x Angstroem
 Tr[quadrupol]     -6998.765633

 energy correction for charged system         0.000000 eV
 dipol+quadrupol energy correction           -0.000000 eV
 added-field ion interaction          0.000019 eV  (added to PSCEN)


 Free energy of the ion-electron system (eV)
  ---------------------------------------------------
  alpha Z        PSCENC =       108.15795463
  Ewald energy   TEWEN  =     41208.52069971
  -Hartree energ DENC   =    -50829.99997868
  -exchange      EXHF   =       579.68933206
  -V(xc)+E(xc)   XCENC  =       668.03663639
  PAW double counting   =     28297.69746724   -28504.57265812
  entropy T*S    EENTRO =        -0.02069620
  eigenvalues    EBANDS =     -3304.75660863
  atomic energy  EATOM  =     11176.96681972
  ---------------------------------------------------
  free energy    TOTEN  =      -600.28205285 eV

  energy without entropy =     -600.26135665  energy(sigma->0) =     -600.27170475
  exchange ACFDT corr.  =        -0.01348487  see jH, gK, PRB 81, 115126


--------------------------------------------------------------------------------------------------------




--------------------------------------- Iteration      1(  14)  ---------------------------------------


    POTLOK:  cpu time    1.2967: real time    1.2970
    SETDIJ:  cpu time    2.0957: real time    2.0958
    TRIAL :  cpu time  550.2187: real time  550.4631
    CORREC:  cpu time    0.0023: real time    0.0026
    CHARGE:  cpu time    1.6804: real time    1.6811
    --------------------------------------------
      LOOP:  cpu time  555.2964: real time  555.5439

 eigenvalue-minimisations  :     0
 total energy-change (2. order) :-0.5665409E-02  (-0.4919623E-02)
 number of electron     250.0000023 magnetization       2.1473580
 augmentation part       18.2513060 magnetization       1.9049006

 DIPCOR: dipole corrections for dipol
 direction  3 min pos     1,
 dipolmoment           0.000000      0.000000      0.001050 electrons x Angstroem
 Tr[quadrupol]     -6998.766763

 energy correction for charged system         0.000000 eV
 dipol+quadrupol energy correction           -0.000000 eV
 added-field ion interaction          0.000019 eV  (added to PSCEN)


 Free energy of the ion-electron system (eV)
  ---------------------------------------------------
  alpha Z        PSCENC =       108.15795498
  Ewald energy   TEWEN  =     41208.52069971
  -Hartree energ DENC   =    -50830.10545782
  -exchange      EXHF   =       579.71640117
  -V(xc)+E(xc)   XCENC  =       668.05093622
  PAW double counting   =     28298.61911565   -28505.54375921
  entropy T*S    EENTRO =        -0.01974912
  eigenvalues    EBANDS =     -3304.64973248
  atomic energy  EATOM  =     11176.96681972
  ---------------------------------------------------
  free energy    TOTEN  =      -600.28771825 eV

  energy without entropy =     -600.26796914  energy(sigma->0) =     -600.27784370
  exchange ACFDT corr.  =        -0.01265658  see jH, gK, PRB 81, 115126


--------------------------------------------------------------------------------------------------------




--------------------------------------- Iteration      1(  15)  ---------------------------------------


    POTLOK:  cpu time    1.2951: real time    1.2956
    SETDIJ:  cpu time    2.1061: real time    2.1063
    TRIAL :  cpu time  551.3221: real time  551.5470
    CORREC:  cpu time    0.0022: real time    0.0024
    CHARGE:  cpu time    1.6755: real time    1.6759
    --------------------------------------------
      LOOP:  cpu time  556.4039: real time  556.6302

 eigenvalue-minimisations  :     0
 total energy-change (2. order) :-0.4631481E-02  (-0.4060980E-02)
 number of electron     250.0000023 magnetization       2.1389037
 augmentation part       18.2517359 magnetization       1.9095115

 DIPCOR: dipole corrections for dipol
 direction  3 min pos     1,
 dipolmoment           0.000000      0.000000      0.001068 electrons x Angstroem
 Tr[quadrupol]     -6998.767659

 energy correction for charged system         0.000000 eV
 dipol+quadrupol energy correction           -0.000000 eV
 added-field ion interaction          0.000019 eV  (added to PSCEN)


 Free energy of the ion-electron system (eV)
  ---------------------------------------------------
  alpha Z        PSCENC =       108.15795530
  Ewald energy   TEWEN  =     41208.52069971
  -Hartree energ DENC   =    -50830.16737805
  -exchange      EXHF   =       579.73940692
  -V(xc)+E(xc)   XCENC  =       668.06275782
  PAW double counting   =     28299.95627276   -28506.90976393
  entropy T*S    EENTRO =        -0.01887375
  eigenvalues    EBANDS =     -3304.59937085
  atomic energy  EATOM  =     11176.96681972
  ---------------------------------------------------
  free energy    TOTEN  =      -600.29234974 eV

  energy without entropy =     -600.27347598  energy(sigma->0) =     -600.28291286
  exchange ACFDT corr.  =        -0.01191156  see jH, gK, PRB 81, 115126


--------------------------------------------------------------------------------------------------------




--------------------------------------- Iteration      1(  16)  ---------------------------------------


    POTLOK:  cpu time    1.2937: real time    1.2942
    SETDIJ:  cpu time    2.0774: real time    2.0778
    TRIAL :  cpu time  551.1815: real time  551.3892
    CORREC:  cpu time    0.0022: real time    0.0025
    CHARGE:  cpu time    1.6820: real time    1.6820
    --------------------------------------------
      LOOP:  cpu time  556.2393: real time  556.4482

 eigenvalue-minimisations  :     0
 total energy-change (2. order) :-0.3840463E-02  (-0.3388584E-02)
 number of electron     250.0000023 magnetization       2.1312818
 augmentation part       18.2519653 magnetization       1.9137272

 DIPCOR: dipole corrections for dipol
 direction  3 min pos     1,
 dipolmoment           0.000000      0.000000      0.001082 electrons x Angstroem
 Tr[quadrupol]     -6998.768108

 energy correction for charged system         0.000000 eV
 dipol+quadrupol energy correction           -0.000000 eV
 added-field ion interaction          0.000019 eV  (added to PSCEN)


 Free energy of the ion-electron system (eV)
  ---------------------------------------------------
  alpha Z        PSCENC =       108.15795554
  Ewald energy   TEWEN  =     41208.52069971
  -Hartree energ DENC   =    -50830.16846882
  -exchange      EXHF   =       579.75857524
  -V(xc)+E(xc)   XCENC  =       668.07189612
  PAW double counting   =     28301.54184115   -28508.50195251
  entropy T*S    EENTRO =        -0.01806835
  eigenvalues    EBANDS =     -3304.62468261
  atomic energy  EATOM  =     11176.96681972
  ---------------------------------------------------
  free energy    TOTEN  =      -600.29619020 eV

  energy without entropy =     -600.27812184  energy(sigma->0) =     -600.28715602
  exchange ACFDT corr.  =        -0.01124107  see jH, gK, PRB 81, 115126


--------------------------------------------------------------------------------------------------------




--------------------------------------- Iteration      1(  17)  ---------------------------------------


    POTLOK:  cpu time    1.2921: real time    1.2921
    SETDIJ:  cpu time    2.0829: real time    2.0828
    TRIAL :  cpu time  549.9974: real time  550.0430
    CORREC:  cpu time    0.0021: real time    0.0024
    CHARGE:  cpu time    1.6791: real time    1.6791
    --------------------------------------------
      LOOP:  cpu time  555.0564: real time  555.1023

 eigenvalue-minimisations  :     0
 total energy-change (2. order) :-0.3215272E-02  (-0.2849259E-02)
 number of electron     250.0000023 magnetization       2.1244305
 augmentation part       18.2522100 magnetization       1.9176314

 DIPCOR: dipole corrections for dipol
 direction  3 min pos     1,
 dipolmoment           0.000000      0.000000      0.001091 electrons x Angstroem
 Tr[quadrupol]     -6998.768216

 energy correction for charged system         0.000000 eV
 dipol+quadrupol energy correction           -0.000000 eV
 added-field ion interaction          0.000020 eV  (added to PSCEN)


 Free energy of the ion-electron system (eV)
  ---------------------------------------------------
  alpha Z        PSCENC =       108.15795571
  Ewald energy   TEWEN  =     41208.52069971
  -Hartree energ DENC   =    -50830.14326950
  -exchange      EXHF   =       579.77509722
  -V(xc)+E(xc)   XCENC  =       668.07953071
  PAW double counting   =     28303.16250818   -28510.12236918
  entropy T*S    EENTRO =        -0.01733069
  eigenvalues    EBANDS =     -3304.67830968
  atomic energy  EATOM  =     11176.96681972
  ---------------------------------------------------
  free energy    TOTEN  =      -600.29940547 eV

  energy without entropy =     -600.28207478  energy(sigma->0) =     -600.29074013
  exchange ACFDT corr.  =        -0.01063823  see jH, gK, PRB 81, 115126


--------------------------------------------------------------------------------------------------------




--------------------------------------- Iteration      1(  18)  ---------------------------------------


    POTLOK:  cpu time    1.2934: real time    1.2939
    SETDIJ:  cpu time    2.0791: real time    2.0794
    TRIAL :  cpu time  549.2343: real time  549.3106
    CORREC:  cpu time    0.0023: real time    0.0026
    CHARGE:  cpu time    1.6823: real time    1.6824
    --------------------------------------------
      LOOP:  cpu time  554.2947: real time  554.6558

 eigenvalue-minimisations  :     0
 total energy-change (2. order) :-0.2711868E-02  (-0.2408597E-02)
 number of electron     250.0000023 magnetization       2.1182860
 augmentation part       18.2524677 magnetization       1.9212495

 DIPCOR: dipole corrections for dipol
 direction  3 min pos     1,
 dipolmoment           0.000000      0.000000      0.001102 electrons x Angstroem
 Tr[quadrupol]     -6998.768168

 energy correction for charged system         0.000000 eV
 dipol+quadrupol energy correction           -0.000000 eV
 added-field ion interaction          0.000020 eV  (added to PSCEN)


 Free energy of the ion-electron system (eV)
  ---------------------------------------------------
  alpha Z        PSCENC =       108.15795591
  Ewald energy   TEWEN  =     41208.52069971
  -Hartree energ DENC   =    -50830.12741101
  -exchange      EXHF   =       579.79004965
  -V(xc)+E(xc)   XCENC  =       668.08680897
  PAW double counting   =     28304.65284128   -28511.61929571
  entropy T*S    EENTRO =        -0.01665762
  eigenvalues    EBANDS =     -3304.71325518
[...]
  augment    44.71833    48.39527    50.33701    -0.01017    -0.03431    -0.00062
  Kinetic  3616.45869  3737.29146  4188.10541    -0.14118     0.04971    -0.00136
  Fock     -385.85515  -389.77361  -365.81096     0.00322     0.01668     0.00064
  -------------------------------------------------------------------------------------
  Total     -62.87075    -9.08200    -0.42144    -0.07257     0.00760     0.00016
  in kB     -31.70724    -4.58027    -0.21254    -0.03660     0.00383     0.00008
  external pressure =      -12.17 kB  Pullay stress =        0.00 kB


 VOLUME and BASIS-vectors are now :
 -----------------------------------------------------------------------------
  energy-cutoff  :      500.00
  volume of cell :     3176.88
      direct lattice vectors                 reciprocal lattice vectors
    12.810000000  0.000000000  0.000000000     0.078064012  0.000000000  0.000000000
     0.000000000 12.400000000  0.000000000     0.000000000  0.080645161  0.000000000
     0.000000000  0.000000000 20.000000000     0.000000000  0.000000000  0.050000000

  length of vectors
    12.810000000 12.400000000 20.000000000     0.078064012  0.080645161  0.050000000


 FORCES acting on ions:
    Electron-Ion                     Ewald-Force                    Non-Local-Force
 -----------------------------------------------------------------------------------------------
   0.134E+02 -.209E+01 -.187E+00   -.137E+02 0.206E+01 0.188E+00   0.330E+00 0.558E-01 -.462E-04
   0.309E+01 -.185E+01 -.221E+00   -.309E+01 0.191E+01 0.222E+00   0.237E-01 -.770E-01 -.157E-02
   0.981E+01 -.673E+00 -.420E-01   -.997E+01 0.676E+00 0.412E-01   0.163E+00 0.279E-01 0.194E-02
   0.164E+02 0.638E+01 -.405E+00   -.169E+02 -.655E+01 0.402E+00   0.382E+00 0.193E+00 0.510E-04
   0.242E+02 0.133E+01 -.231E+00   -.247E+02 -.141E+01 0.232E+00   0.441E+00 -.208E-01 -.166E-02
   0.747E+01 -.235E+01 -.275E+00   -.754E+01 0.276E+01 0.275E+00   0.107E+00 -.330E+00 0.593E-03
   0.811E+01 0.558E+00 -.271E+00   -.850E+01 -.248E+00 0.271E+00   0.380E+00 -.301E+00 -.632E-03
   0.493E+02 0.187E+01 0.164E+00   -.533E+02 -.935E+00 -.156E+00   0.405E+01 -.784E+00 -.512E-02
   0.347E+02 0.338E+01 -.164E+00   -.346E+02 -.232E+01 0.166E+00   0.193E-01 -.995E+00 -.404E-02
   0.904E+01 -.756E+00 -.336E+00   -.916E+01 0.787E+00 0.334E+00   0.177E+00 -.708E-01 0.193E-02
   0.113E+02 -.293E+01 -.326E+00   -.114E+02 0.317E+01 0.328E+00   -.552E-01 -.226E+00 -.206E-02
   0.875E+02 -.220E+01 -.780E-01   -.901E+02 0.229E+01 0.871E-01   0.268E+01 -.205E+00 -.165E-01
   0.352E+02 0.240E+01 -.532E+00   -.351E+02 -.311E+01 0.534E+00   -.144E+00 0.694E+00 -.604E-02
   0.805E+01 0.433E+01 -.248E+00   -.813E+01 -.473E+01 0.249E+00   0.103E+00 0.377E+00 0.236E-03
   0.119E+02 0.276E+01 -.442E+00   -.117E+02 -.297E+01 0.442E+00   -.236E+00 0.185E+00 -.149E-02
   0.676E+02 0.345E+01 -.419E+00   -.714E+02 -.432E+01 0.415E+00   0.386E+01 0.868E+00 0.272E-02
   0.290E+02 -.467E+01 -.198E+00   -.293E+02 0.442E+01 0.199E+00   0.377E+00 0.264E+00 0.387E-04
   0.264E+01 0.504E+00 0.334E-01   -.268E+01 -.616E+00 -.328E-01   0.323E-01 0.847E-01 0.334E-03
   0.118E+02 0.411E+00 -.901E-01   -.122E+02 -.747E+00 0.900E-01   0.381E+00 0.310E+00 0.686E-03
   0.191E+02 -.100E+02 -.125E+00   -.194E+02 0.100E+02 0.126E+00   0.273E+00 -.559E-01 0.191E-02
   -.291E+01 -.366E+01 -.614E+00   0.248E+01 0.361E+01 0.615E+00   0.309E+00 0.106E+00 -.157E-02
   0.154E+02 0.138E+02 -.720E+00   -.154E+02 -.145E+02 0.723E+00   0.987E-01 0.690E+00 -.667E-02
   0.290E+01 -.367E+01 -.648E+00   -.247E+01 0.363E+01 0.649E+00   -.311E+00 0.102E+00 -.229E-02
   -.154E+02 0.139E+02 -.713E+00   0.153E+02 -.146E+02 0.716E+00   -.979E-01 0.693E+00 -.636E-02
   0.603E+01 0.438E+02 -.312E+00   -.736E+01 -.471E+02 0.322E+00   0.126E+01 0.311E+01 -.996E-02
   -.600E+01 0.438E+02 -.276E+00   0.732E+01 -.471E+02 0.286E+00   -.126E+01 0.311E+01 -.991E-02
   0.933E+01 -.661E+02 -.391E+00   -.106E+02 0.693E+02 0.394E+00   0.136E+01 -.305E+01 -.169E-03
   0.170E+02 -.237E+02 -.274E+00   -.168E+02 0.241E+02 0.275E+00   -.543E-01 -.497E+00 0.932E-03
   -.934E+01 -.661E+02 -.381E+00   0.106E+02 0.693E+02 0.385E+00   -.135E+01 -.305E+01 -.115E-02
   -.169E+02 -.237E+02 -.225E+00   0.168E+02 0.241E+02 0.226E+00   0.545E-01 -.487E+00 0.138E-02
   -.984E+01 -.792E+00 -.310E-01   0.999E+01 0.789E+00 0.304E-01   -.163E+00 0.245E-01 0.177E-02
   -.164E+02 0.635E+01 -.411E+00   0.169E+02 -.652E+01 0.409E+00   -.384E+00 0.195E+00 -.747E-04
   -.134E+02 -.199E+01 -.156E+00   0.137E+02 0.195E+01 0.156E+00   -.328E+00 0.577E-01 0.329E-03
   -.313E+01 -.171E+01 -.224E+00   0.313E+01 0.177E+01 0.225E+00   -.275E-01 -.704E-01 -.156E-02
   -.806E+01 0.436E+00 -.296E+00   0.845E+01 -.130E+00 0.295E+00   -.385E+00 -.298E+00 -.476E-03
   -.494E+02 0.188E+01 0.593E-01   0.534E+02 -.952E+00 -.528E-01   -.405E+01 -.776E+00 -.500E-02
   -.243E+02 0.139E+01 -.286E+00   0.248E+02 -.146E+01 0.287E+00   -.438E+00 -.130E-01 -.171E-02
   -.749E+01 -.225E+01 -.295E+00   0.757E+01 0.266E+01 0.295E+00   -.116E+00 -.321E+00 0.414E-03
   -.114E+02 -.294E+01 -.358E+00   0.115E+02 0.318E+01 0.360E+00   0.394E-01 -.221E+00 -.203E-02
   -.875E+02 -.213E+01 -.989E-01   0.901E+02 0.222E+01 0.109E+00   -.269E+01 -.193E+00 -.172E-01
   -.347E+02 0.337E+01 -.236E+00   0.347E+02 -.231E+01 0.238E+00   -.307E-01 -.982E+00 -.408E-02
   -.906E+01 -.799E+00 -.337E+00   0.917E+01 0.827E+00 0.334E+00   -.174E+00 -.773E-01 0.216E-02
   -.120E+02 0.277E+01 -.439E+00   0.118E+02 -.297E+01 0.439E+00   0.244E+00 0.186E+00 -.135E-02
   -.676E+02 0.344E+01 -.456E+00   0.713E+02 -.431E+01 0.450E+00   -.386E+01 0.876E+00 0.360E-02
   -.352E+02 0.229E+01 -.557E+00   0.351E+02 -.301E+01 0.559E+00   0.146E+00 0.697E+00 -.621E-02
   -.809E+01 0.435E+01 -.242E+00   0.816E+01 -.474E+01 0.243E+00   -.101E+00 0.376E+00 0.258E-03
   -.118E+02 0.378E+00 -.705E-01   0.123E+02 -.720E+00 0.704E-01   -.370E+00 0.312E+00 0.728E-03
   -.191E+02 -.100E+02 -.842E-01   0.194E+02 0.100E+02 0.848E-01   -.274E+00 -.596E-01 0.176E-02
   -.289E+02 -.463E+01 -.175E+00   0.292E+02 0.438E+01 0.175E+00   -.369E+00 0.266E+00 0.398E-03
   -.266E+01 0.614E+00 0.459E-01   0.270E+01 -.720E+00 -.454E-01   -.212E-01 0.949E-01 0.446E-03
   0.326E+02 -.908E+01 0.774E+00   -.247E+02 0.255E+02 -.826E+00   -.784E+01 -.155E+02 0.523E-01
   -.325E+02 -.909E+01 0.602E+00   0.245E+02 0.255E+02 -.649E+00   0.784E+01 -.155E+02 0.460E-01
   0.827E+02 0.369E+02 0.341E+01   -.679E+02 -.343E+02 -.358E+01   -.139E+02 -.226E+01 0.154E+00
   -.825E+02 0.367E+02 0.353E+01   0.678E+02 -.340E+02 -.370E+01   0.139E+02 -.230E+01 0.160E+00
   0.696E+02 -.149E+02 -.909E+00   -.597E+02 -.472E+01 0.909E+00   -.930E+01 0.184E+02 0.101E-02
   -.698E+02 -.152E+02 -.111E+01   0.600E+02 -.436E+01 0.112E+01   0.928E+01 0.183E+02 -.960E-02
   0.127E+00 0.103E+03 0.573E+01   -.132E+00 -.104E+03 -.567E+01   0.763E-03 0.489E-01 -.559E-01
   0.897E-01 -.588E+02 0.128E+01   -.107E+00 0.598E+02 -.127E+01   0.132E-01 -.363E+00 -.170E-02
 -----------------------------------------------------------------------------------------------
   0.455E-02 -.151E+01 -.283E+00   0.268E-13 -.853E-13 -.133E-14   -.448E-02 0.158E+01 0.254E+00
 
 
 POSITION                                       TOTAL-FORCE (eV/Angst)
 -----------------------------------------------------------------------------------
      2.82396      0.00311     10.00033         0.015575      0.021818      0.000829
      0.70413      1.24764     10.00038         0.023765     -0.022515     -0.000617
      1.40194      0.00130     10.00003         0.020073      0.033297      0.001261
      3.54119      1.23085     10.00050        -0.068095      0.030554     -0.002544
      2.85872      2.47462      9.99961         0.007684     -0.105369     -0.000860
      0.70954      3.72378     10.00030         0.043329      0.059203      0.000219
      1.42292      2.48724     10.00026         0.002206     -0.005406     -0.001059
      3.62052      3.69250      9.99739         0.286518      0.105070      0.002193
      2.89018      4.93333      9.99826         0.096109      0.021879     -0.001803
      0.71635      6.19680     10.00046         0.076357     -0.043704     -0.000357
      1.44849      4.95200      9.99998        -0.167748      0.003362     -0.000742
      3.64244      6.17386      9.99645         0.323421     -0.137771     -0.008600
      2.91041      7.44734      9.99979        -0.055365      0.015103     -0.004517
      0.71056      8.66543     10.00048         0.035410      0.006559      0.000897
      1.46150      7.43632     10.00060        -0.022239     -0.014986     -0.001584
      3.60813      8.71688     10.00010         0.278450      0.053136     -0.001689
      2.84294      9.93121     10.00022         0.075096      0.028213      0.000366
      0.70126     11.15575      9.99981        -0.007290     -0.022006      0.000952
      1.41267      9.91266     10.00009        -0.027569     -0.010014      0.000562
      3.53677     11.17437     10.00026         0.001985     -0.029993      0.002213
      7.10334      0.00732     10.00138        -0.101910      0.066534     -0.001126
      4.96673      1.21972     10.00091         0.147263      0.050770     -0.003968
      5.68636      0.00773     10.00144         0.101255      0.065051     -0.001282
      7.82338      1.21914     10.00094        -0.148242      0.055065     -0.003854
      7.11701      2.42837      9.99859         0.014717     -0.005268     -0.000308
      5.67367      2.42858      9.99845        -0.018372     -0.001629     -0.000007
      7.12977      9.98150     10.00039         0.200949     -0.002380      0.003244
      4.96408     11.19882     10.00064         0.082332     -0.168851      0.002214
      5.65894      9.98195     10.00032        -0.197406     -0.002908      0.003119
      7.82507     11.19796     10.00054        -0.081577     -0.152937      0.002722
     11.38748      0.00101     10.00000        -0.021292      0.023205      0.001303
      9.24889      1.23007     10.00057         0.061552      0.030534     -0.002495
      9.96546      0.00230     10.00027        -0.009064      0.024615      0.001082
     12.08608      1.24709     10.00041        -0.025436     -0.011090     -0.000645
     11.36785      2.48668     10.00039        -0.012969     -0.006330     -0.001041
      9.17033      3.69140      9.99778        -0.282933      0.109238      0.001303
      9.93171      2.47350      9.99984         0.005632     -0.094407     -0.001008
     12.08171      3.72317     10.00039        -0.049683      0.070225      0.000214
     11.34269      4.95116     10.00013         0.150851      0.007523     -0.000706
      9.14839      6.17224      9.99655        -0.330005     -0.130271     -0.008649
      9.90098      4.93191      9.99855        -0.100201      0.032370     -0.002036
     12.07360      6.19663     10.00050        -0.071709     -0.054155     -0.000174
     11.32769      7.43573     10.00063         0.034409     -0.008448     -0.001293
      9.18054      8.71555     10.00027        -0.278397      0.064774     -0.001875
      9.87899      7.44635      9.99992         0.056932      0.012321     -0.004462
     12.07823      8.66515     10.00047        -0.033886      0.004449      0.001010
     11.37571      9.91208     10.00005         0.038999     -0.013635      0.000657
      9.25237     11.17366     10.00016        -0.004383     -0.037265      0.002504
      9.94558      9.93017     10.00019        -0.072133      0.030301      0.000513
     12.08723     11.15517      9.99978         0.018540     -0.004760      0.000964
      5.01582      3.63198      9.99529        -0.526462     -0.397511      0.004158
      7.77530      3.63157      9.99568         0.512577     -0.400042      0.003241
      4.96337      6.12270      9.98980        -0.278820      0.140728      0.003113
      7.82750      6.12161      9.98966         0.277717      0.143163      0.003448
      4.98023      8.81348     10.00003        -0.224622      0.353457      0.001234
      7.80822      8.81269     10.00040         0.232277      0.354765      0.000008
      6.39556      4.97226      9.98823        -0.002171     -0.385802      0.012829
      6.39509      7.43235      9.99514        -0.002001      0.252172      0.000928
 -----------------------------------------------------------------------------------
    total drift:                                0.001627     -0.007531      0.000323


--------------------------------------------------------------------------------------------------------



  FREE ENERGIE OF THE ION-ELECTRON SYSTEM (eV)
  ---------------------------------------------------
  free  energy   TOTEN  =      -600.31870757 eV

  energy  without entropy=     -600.30825522  energy(sigma->0) =     -600.31348139
 


--------------------------------------------------------------------------------------------------------


    POTLOK:  cpu time    3.3619: real time    3.3622


--------------------------------------------------------------------------------------------------------


 stress matrix after NEB project (eV)
    -62.87075     -0.07257      0.00016
     -0.07257     -9.08200      0.00598
      0.00015      0.00760     -0.42144
  FORCES: max atom, RMS     0.659693    0.212050
  FORCE total and by dimension    1.614928    0.526462
  Stress total and by dimension   63.524813   62.870748
 writing wavefunctions
     LOOP+:  cpu time27344.7401: real time27356.8077
    4ORBIT:  cpu time    0.0000: real time    0.0000
 


 total charge     
 
# of ion       s       p       d       tot
------------------------------------------
    1        0.868   1.791   0.000   2.658
    2        0.865   1.767   0.000   2.632
    3        0.867   1.771   0.000   2.638
    4        0.871   1.776   0.000   2.646
    5        0.865   1.771   0.000   2.636
    6        0.863   1.762   0.000   2.625
    7        0.864   1.759   0.000   2.623
    8        0.852   1.709   0.000   2.561
    9        0.858   1.758   0.000   2.616
   10        0.854   1.734   0.000   2.589
   11        0.860   1.740   0.000   2.600
   12        0.861   1.716   0.000   2.577
   13        0.850   1.739   0.000   2.589
   14        0.860   1.752   0.000   2.612
   15        0.858   1.729   0.000   2.587
   16        0.855   1.713   0.000   2.568
   17        0.867   1.772   0.000   2.639
   18        0.866   1.769   0.000   2.635
   19        0.865   1.760   0.000   2.625
   20        0.870   1.771   0.000   2.642
   21        0.871   1.811   0.000   2.682
   22        0.875   1.807   0.000   2.682
   23        0.871   1.811   0.000   2.682
   24        0.875   1.807   0.000   2.682
   25        0.867   1.767   0.000   2.634
   26        0.867   1.767   0.000   2.634
   27        0.865   1.761   0.000   2.627
   28        0.875   1.808   0.000   2.683
   29        0.865   1.761   0.000   2.627
   30        0.875   1.808   0.000   2.683
   31        0.867   1.771   0.000   2.639
   32        0.871   1.776   0.000   2.647
   33        0.868   1.791   0.000   2.659
   34        0.865   1.767   0.000   2.632
   35        0.864   1.759   0.000   2.623
   36        0.852   1.709   0.000   2.562
   37        0.865   1.771   0.000   2.636
   38        0.863   1.762   0.000   2.625
   39        0.860   1.740   0.000   2.600
   40        0.862   1.716   0.000   2.578
   41        0.858   1.759   0.000   2.616
   42        0.854   1.734   0.000   2.589
   43        0.858   1.729   0.000   2.587
   44        0.855   1.713   0.000   2.568
   45        0.850   1.739   0.000   2.589
   46        0.860   1.752   0.000   2.612
   47        0.865   1.760   0.000   2.625
   48        0.870   1.771   0.000   2.642
   49        0.867   1.772   0.000   2.639
   50        0.866   1.770   0.000   2.635
   51        1.228   2.670   0.000   3.897
   52        1.228   2.670   0.000   3.898
   53        1.243   2.629   0.000   3.872
   54        1.243   2.629   0.000   3.872
   55        1.233   2.702   0.000   3.935
   56        1.233   2.702   0.000   3.935
   57        0.468   0.723   6.206   7.397
   58        0.507   0.587   9.951  11.045
--------------------------------------------------
tot         51.565 105.344  16.157 173.066
 


 magnetization (x)
 
# of ion       s       p       d       tot
------------------------------------------
    1       -0.000  -0.006   0.000  -0.006
    2        0.000  -0.002   0.000  -0.002
    3       -0.000  -0.008   0.000  -0.008
    4       -0.001  -0.011   0.000  -0.012
    5       -0.000  -0.003   0.000  -0.003
    6       -0.000  -0.009   0.000  -0.010
    7       -0.000  -0.005   0.000  -0.005
    8       -0.000  -0.010   0.000  -0.010
    9        0.002   0.004   0.000   0.006
   10        0.000  -0.002   0.000  -0.002
   11       -0.000  -0.007   0.000  -0.007
   12       -0.001  -0.008   0.000  -0.009
   13       -0.000  -0.015   0.000  -0.016
   14       -0.001  -0.012   0.000  -0.013
   15       -0.000  -0.010   0.000  -0.011
   16        0.000  -0.003   0.000  -0.003
   17        0.000  -0.002   0.000  -0.002
   18       -0.000  -0.004   0.000  -0.004
   19       -0.000  -0.003   0.000  -0.004
   20       -0.001  -0.010   0.000  -0.010
   21       -0.000  -0.005   0.000  -0.006
   22        0.000   0.001   0.000   0.001
   23       -0.000  -0.005   0.000  -0.005
   24        0.000   0.001   0.000   0.001
   25       -0.000  -0.007   0.000  -0.008
   26       -0.000  -0.007   0.000  -0.008
   27       -0.000  -0.010   0.000  -0.010
   28        0.000  -0.001   0.000  -0.001
   29       -0.000  -0.010   0.000  -0.010
   30        0.000  -0.001   0.000  -0.001
   31       -0.000  -0.008   0.000  -0.008
   32       -0.001  -0.011   0.000  -0.012
   33       -0.000  -0.006   0.000  -0.006
   34        0.000  -0.002   0.000  -0.002
   35       -0.000  -0.005   0.000  -0.005
   36       -0.000  -0.010   0.000  -0.010
   37       -0.000  -0.003   0.000  -0.003
   38       -0.000  -0.009   0.000  -0.009
   39       -0.000  -0.007   0.000  -0.007
   40       -0.001  -0.008   0.000  -0.009
   41        0.002   0.004   0.000   0.006
   42        0.000  -0.002   0.000  -0.002
   43       -0.000  -0.010   0.000  -0.011
   44        0.000  -0.003   0.000  -0.003
   45       -0.000  -0.015   0.000  -0.015
   46       -0.001  -0.012   0.000  -0.013
   47       -0.000  -0.004   0.000  -0.004
   48       -0.001  -0.010   0.000  -0.010
   49        0.000  -0.002   0.000  -0.002
   50       -0.000  -0.003   0.000  -0.004
   51       -0.004  -0.041   0.000  -0.046
   52       -0.004  -0.041   0.000  -0.046
   53       -0.000   0.055   0.000   0.054
   54       -0.000   0.055   0.000   0.055
   55       -0.000  -0.035   0.000  -0.035
   56       -0.000  -0.035   0.000  -0.035
   57        0.063   0.023   2.498   2.584
   58        0.002  -0.008   0.014   0.008
--------------------------------------------------
tot          0.050  -0.326   2.512   2.236
 

 total amount of memory used by VASP MPI-rank0   177536. kBytes
=======================================================================

   base      :      30000. kBytes
   nonl-proj :       5318. kBytes
   fftplans  :      13453. kBytes
   grid      :      34560. kBytes
   one-center:         62. kBytes
   HF        :         23. kBytes
   nonlr-proj:      15268. kBytes
   wavefun   :      78852. kBytes
 
  
  
 General timing and accounting informations for this job:
 ========================================================
  
                  Total CPU time used (sec):    27397.072
                            User time (sec):    27359.078
                          System time (sec):       37.995
                         Elapsed time (sec):    27410.367
  
                   Maximum memory used (kb):      416248.
                   Average memory used (kb):           0.
  
                          Minor page faults:       253247
                          Major page faults:            0
                 Voluntary context switches:         1780
