 vasp.5.4.4.18Apr17-6-g9f103f2a35 (build Feb 25 2019 10:51:38) complex          
  
 executed on             LinuxIFC date 2021.08.06  11:10:14
 running on   32 total cores
 distrk:  each k-point on   32 cores,    1 groups
 distr:  one band on NCORES_PER_BAND=  32 cores,    1 groups


--------------------------------------------------------------------------------------------------------


 INCAR:
 POTCAR:    PAW_PBE C 08Apr2002                   
 POTCAR:    PAW_PBE N 08Apr2002                   
 POTCAR:    PAW_PBE Fe 06Sep2000                  

 ----------------------------------------------------------------------------- 
|                                                                             |
|           W    W    AA    RRRRR   N    N  II  N    N   GGGG   !!!           |
|           W    W   A  A   R    R  NN   N  II  NN   N  G    G  !!!           |
|           W    W  A    A  R    R  N N  N  II  N N  N  G       !!!           |
|           W WW W  AAAAAA  RRRRR   N  N N  II  N  N N  G  GGG   !            |
|           WW  WW  A    A  R   R   N   NN  II  N   NN  G    G                |
|           W    W  A    A  R    R  N    N  II  N    N   GGGG   !!!           |
|                                                                             |
|      For optimal performance we recommend to set                            |
|        NCORE= 4 - approx SQRT( number of cores)                             |
|      NCORE specifies how many cores store one orbital (NPAR=cpu/NCORE).     |
|      This setting can  greatly improve the performance of VASP for DFT.     |
|      The default,   NCORE=1            might be grossly inefficient         |
|      on modern multi-core architectures or massively parallel machines.     |
|      Do your own testing !!!!                                               |
|      Unfortunately you need to use the default for GW and RPA calculations. |
|      (for HF NCORE is supported but not extensively tested yet)             |
|                                                                             |
 ----------------------------------------------------------------------------- 

 POTCAR:    PAW_PBE C 08Apr2002                   
   VRHFIN =C: s2p2                                                              
   LEXCH  = PE                                                                  
   EATOM  =   147.1560 eV,   10.8157 Ry                                         
                                                                                
   TITEL  = PAW_PBE C 08Apr2002                                                 
   LULTRA =        F    use ultrasoft PP ?                                      
   IUNSCR =        1    unscreen: 0-lin 1-nonlin 2-no                           
   RPACOR =    1.200    partial core radius                                     
   POMASS =   12.011; ZVAL   =    4.000    mass and valenz                      
   RCORE  =    1.500    outmost cutoff radius                                   
   RWIGS  =    1.630; RWIGS  =    0.863    wigner-seitz radius (au A)           
   ENMAX  =  400.000; ENMIN  =  300.000 eV                                      
   ICORE  =        2    local potential                                         
   LCOR   =        T    correct aug charges                                     
   LPAW   =        T    paw PP                                                  
   EAUG   =  644.873                                                            
   DEXC   =    0.000                                                            
   RMAX   =    1.529    core radius for proj-oper                               
   RAUG   =    1.300    factor for augmentation sphere                          
   RDEP   =    1.501    radius for radial grids                                 
   RDEPT  =    1.300    core radius for aug-charge                              
                                                                                
   Atomic configuration                                                         
    4 entries                                                                   
     n  l   j            E        occ.                                          
     1  0  0.50      -273.3789   2.0000                                         
     2  0  0.50       -13.7508   2.0000                                         
     2  1  0.50        -5.2854   2.0000                                         
     3  2  1.50        -5.4423   0.0000                                         
   Description                                                                  
     l       E           TYP  RCUT    TYP  RCUT                                 
     0    -13.7508458     23  1.200                                             
     0     -8.2022199     23  1.200                                             
     1     -5.2854383     23  1.500                                             
     1     34.0145650     23  1.500                                             
     2     -5.4423304      7  1.500                                             
  local pseudopotential read in
  partial core-charges read in
  partial kinetic energy density read in
  atomic valenz-charges read in
  non local Contribution for L=           0  read in
    real space projection operators read in
  non local Contribution for L=           0  read in
    real space projection operators read in
  non local Contribution for L=           1  read in
    real space projection operators read in
  non local Contribution for L=           1  read in
    real space projection operators read in
    PAW grid and wavefunctions read in
 
   number of l-projection  operators is LMAX  =           4
   number of lm-projection operators is LMMAX =           8
 
 POTCAR:    PAW_PBE N 08Apr2002                   
   VRHFIN =N: s2p3                                                              
   LEXCH  = PE                                                                  
   EATOM  =   264.5486 eV,   19.4438 Ry                                         
                                                                                
   TITEL  = PAW_PBE N 08Apr2002                                                 
   LULTRA =        F    use ultrasoft PP ?                                      
   IUNSCR =        1    unscreen: 0-lin 1-nonlin 2-no                           
   RPACOR =    1.200    partial core radius                                     
   POMASS =   14.001; ZVAL   =    5.000    mass and valenz                      
   RCORE  =    1.500    outmost cutoff radius                                   
   RWIGS  =    1.400; RWIGS  =    0.741    wigner-seitz radius (au A)           
   ENMAX  =  400.000; ENMIN  =  300.000 eV                                      
   ICORE  =        2    local potential                                         
   LCOR   =        T    correct aug charges                                     
   LPAW   =        T    paw PP                                                  
   EAUG   =  627.112                                                            
   DEXC   =    0.000                                                            
   RMAX   =    1.529    core radius for proj-oper                               
   RAUG   =    1.300    factor for augmentation sphere                          
   RDEP   =    1.514    radius for radial grids                                 
   RDEPT  =    1.338    core radius for aug-charge                              
                                                                                
   Atomic configuration                                                         
    4 entries                                                                   
     n  l   j            E        occ.                                          
     1  0  0.50      -384.7179   2.0000                                         
     2  0  0.50       -18.5828   2.0000                                         
     2  1  0.50        -7.0898   3.0000                                         
     3  2  1.50        -6.8029   0.0000                                         
   Description                                                                  
     l       E           TYP  RCUT    TYP  RCUT                                 
     0    -18.5828119     23  1.200                                             
     0    -13.5018863     23  1.200                                             
     1     -7.0897853     23  1.500                                             
     1      9.5240782     23  1.500                                             
     2     -6.8029130      7  1.500                                             
  local pseudopotential read in
  partial core-charges read in
  partial kinetic energy density read in
  atomic valenz-charges read in
  non local Contribution for L=           0  read in
    real space projection operators read in
  non local Contribution for L=           0  read in
    real space projection operators read in
  non local Contribution for L=           1  read in
    real space projection operators read in
  non local Contribution for L=           1  read in
    real space projection operators read in
    PAW grid and wavefunctions read in
 
   number of l-projection  operators is LMAX  =           4
   number of lm-projection operators is LMMAX =           8
 
 POTCAR:    PAW_PBE Fe 06Sep2000                  
   VRHFIN =Fe:  d7 s1                                                           
   LEXCH  = PE                                                                  
   EATOM  =   594.3153 eV,   43.6809 Ry                                         
                                                                                
   TITEL  = PAW_PBE Fe 06Sep2000                                                
   LULTRA =        F    use ultrasoft PP ?                                      
   IUNSCR =        1    unscreen: 0-lin 1-nonlin 2-no                           
   RPACOR =    2.000    partial core radius                                     
   POMASS =   55.847; ZVAL   =    8.000    mass and valenz                      
   RCORE  =    2.300    outmost cutoff radius                                   
   RWIGS  =    2.460; RWIGS  =    1.302    wigner-seitz radius (au A)           
   ENMAX  =  267.882; ENMIN  =  200.911 eV                                      
   RCLOC  =    1.701    cutoff for local pot                                    
   LCOR   =        T    correct aug charges                                     
   LPAW   =        T    paw PP                                                  
   EAUG   =  511.368                                                            
   DEXC   =    0.000                                                            
   RMAX   =    2.356    core radius for proj-oper                               
   RAUG   =    1.300    factor for augmentation sphere                          
   RDEP   =    2.442    radius for radial grids                                 
   RDEPT  =    1.890    core radius for aug-charge                              
                                                                                
   Atomic configuration                                                         
    9 entries                                                                   
     n  l   j            E        occ.                                          
     1  0  0.50     -6993.8440   2.0000                                         
     2  0  0.50      -814.6047   2.0000                                         
     2  1  1.50      -693.3689   6.0000                                         
     3  0  0.50       -89.4732   2.0000                                         
     3  1  1.50       -55.6373   6.0000                                         
     3  2  2.50        -3.8151   7.0000                                         
     4  0  0.50        -4.2551   1.0000                                         
     4  1  1.50        -3.4015   0.0000                                         
     4  3  2.50        -1.3606   0.0000                                         
   Description                                                                  
     l       E           TYP  RCUT    TYP  RCUT                                 
     2     -3.8151135     23  2.300                                             
     2     -5.1756961     23  2.300                                             
     0     -4.2550963     23  2.300                                             
     0      7.2035603     23  2.300                                             
     1     -2.7211652     23  2.300                                             
     1     18.4316424     23  2.300                                             
  local pseudopotential read in
  partial core-charges read in
  partial kinetic energy density read in
  atomic valenz-charges read in
  non local Contribution for L=           2  read in
    real space projection operators read in
  non local Contribution for L=           2  read in
    real space projection operators read in
  non local Contribution for L=           0  read in
    real space projection operators read in
  non local Contribution for L=           0  read in
    real space projection operators read in
  non local Contribution for L=           1  read in
    real space projection operators read in
  non local Contribution for L=           1  read in
    real space projection operators read in
    PAW grid and wavefunctions read in
 
   number of l-projection  operators is LMAX  =           6
   number of lm-projection operators is LMMAX =          18
 

 ----------------------------------------------------------------------------- 
|                                                                             |
|  ADVICE TO THIS USER RUNNING 'VASP/VAMP'   (HEAR YOUR MASTER'S VOICE ...):  |
|                                                                             |
|      You have a (more or less) 'large supercell' and for larger cells       |
|      it might be more efficient to use real space projection opertators     |
|      So try LREAL= Auto  in the INCAR   file.                               |
|      Mind:          For very  accurate calculation you might also keep the  |
|      reciprocal projection scheme          (i.e. LREAL=.FALSE.)             |
|                                                                             |
 ----------------------------------------------------------------------------- 

  PAW_PBE C 08Apr2002                   :
 energy of atom  1       EATOM= -147.1560
 kinetic energy error for atom=    0.0076 (will be added to EATOM!!)
  PAW_PBE N 08Apr2002                   :
 energy of atom  2       EATOM= -264.5486
 kinetic energy error for atom=    0.0138 (will be added to EATOM!!)
  PAW_PBE Fe 06Sep2000                  :
 energy of atom  3       EATOM= -594.3153
 kinetic energy error for atom=    0.0026 (will be added to EATOM!!)
 
 
 POSCAR:  C  N Fe                                
  positions in cartesian coordinates
  No initial velocities read in
 exchange correlation table for  LEXCH =        8
   RHO(1)=    0.500       N(1)  =     2000
   RHO(2)=  100.500       N(2)  =     4000

 VTST: version 3.2, (02/03/18)

 CHAIN: initializing optimizer
 
 OPT: Using VASP Conjugate-Gradient optimizer
 CHAIN: Read ICHAIN            0
 
 POSCAR:  C  N Fe                                
  positions in cartesian coordinates
  No initial velocities read in
 


--------------------------------------------------------------------------------------------------------


 ion  position               nearest neighbor table
   1  0.221  1.000  0.500-   3 1.42   4 1.43  20 1.43
   2  0.055  0.100  0.500-  34 1.42   3 1.43   7 1.44
   3  0.109  1.000  0.500-   1 1.42  18 1.43   2 1.43
   4  0.276  0.099  0.500-  22 1.42   5 1.42   1 1.43
   5  0.223  0.200  0.500-   4 1.42   7 1.43   8 1.44
   6  0.056  0.300  0.500-  38 1.43   7 1.43  11 1.44
   7  0.111  0.200  0.500-   5 1.43   6 1.43   2 1.44
   8  0.283  0.298  0.500-  53 1.38   5 1.44   9 1.45
   9  0.227  0.399  0.500-  11 1.44   8 1.45  12 1.45
  10  0.057  0.500  0.500-  15 1.44  42 1.44  11 1.45
  11  0.114  0.400  0.500-   9 1.44   6 1.44  10 1.45
  12  0.282  0.501  0.500-  54 1.33  13 1.45   9 1.45
  13  0.227  0.601  0.500-  15 1.44  16 1.44  12 1.45
  14  0.056  0.699  0.500-  19 1.43  46 1.43  15 1.44
  15  0.114  0.600  0.500-  13 1.44  14 1.44  10 1.44
  16  0.284  0.702  0.500-  55 1.39  17 1.44  13 1.44
  17  0.224  0.800  0.500-  20 1.42  19 1.43  16 1.44
  18  0.055  0.899  0.500-  50 1.43   3 1.43  19 1.44
  19  0.111  0.799  0.500-  14 1.43  17 1.43  18 1.44
  20  0.277  0.900  0.500-  28 1.42  17 1.42   1 1.43
  21  0.555  1.000  0.500-  23 1.41  30 1.42  24 1.43
  22  0.387  0.098  0.500-  26 1.40   4 1.42  23 1.42
  23  0.444  0.999  0.500-  21 1.41  28 1.42  22 1.42
  24  0.610  0.099  0.500-  25 1.42  32 1.42  21 1.43
  25  0.554  0.197  0.500-  24 1.42  26 1.43  51 1.43
  26  0.442  0.195  0.500-  53 1.38  22 1.40  25 1.43
  27  0.555  0.802  0.500-  56 1.39  30 1.41  29 1.43
  28  0.388  0.901  0.500-  29 1.41  23 1.42  20 1.42
  29  0.443  0.803  0.500-  55 1.38  28 1.41  27 1.43
  30  0.610  0.900  0.500-  27 1.41  48 1.42  21 1.42
  31  0.888  1.000  0.500-  33 1.42  50 1.44  34 1.44
  32  0.722  0.100  0.500-  24 1.42  37 1.43  33 1.43
  33  0.777  0.000  0.500-  31 1.42  48 1.43  32 1.43
  34  0.943  0.101  0.500-   2 1.42  35 1.44  31 1.44
  35  0.888  0.201  0.500-  37 1.43  34 1.44  38 1.44
  36  0.717  0.300  0.500-  51 1.43  37 1.44  41 1.45
  37  0.775  0.201  0.500-  32 1.43  35 1.43  36 1.44
  38  0.944  0.300  0.500-   6 1.43  35 1.44  39 1.44
  39  0.887  0.400  0.500-  41 1.43  38 1.44  42 1.44
  40  0.718  0.500  0.500-  52 1.40  45 1.44  41 1.44
  41  0.775  0.400  0.500-  39 1.43  40 1.44  36 1.45
  42  0.944  0.500  0.500-  39 1.44  10 1.44  43 1.44
  43  0.886  0.600  0.500-  46 1.43  45 1.44  42 1.44
  44  0.715  0.701  0.500-  56 1.39  49 1.44  45 1.45
  45  0.773  0.601  0.500-  40 1.44  43 1.44  44 1.45
  46  0.943  0.699  0.500-  14 1.43  47 1.43  43 1.43
  47  0.887  0.799  0.500-  46 1.43  49 1.43  50 1.44
  48  0.722  0.900  0.500-  30 1.42  49 1.43  33 1.43
  49  0.774  0.799  0.500-  48 1.43  47 1.43  44 1.44
  50  0.943  0.899  0.500-  18 1.43  31 1.44  47 1.44
  51  0.604  0.300  0.500-  25 1.43  36 1.43  57 1.95
  52  0.608  0.496  0.500-  40 1.40  57 1.78  58 1.85
  53  0.392  0.293  0.500-  26 1.38   8 1.38  57 1.98
  54  0.387  0.501  0.500-  12 1.33  57 1.79  58 1.79
  55  0.393  0.705  0.500-  29 1.38  16 1.39  58 1.95
  56  0.605  0.703  0.500-  27 1.39  44 1.39  58 1.97
  57  0.497  0.410  0.499-  52 1.78  54 1.79  51 1.95  53 1.98  58 2.25
  58  0.497  0.591  0.500-  54 1.79  52 1.85  55 1.95  56 1.97  57 2.25
 
  LATTYP: Found a triclinic cell.
 ALAT       =    12.4685402383
 B/A-ratio  =     1.4292798489
 C/A-ratio  =     1.6057481455
 COS(alpha) =     0.0000882356
 COS(beta)  =     0.0003216676
 COS(gamma) =     0.7000428386
  
  Lattice vectors:
  
 A1 = (   0.0030962869,  12.4685398538,  -0.0000363196)
 A2 = (  12.7291126531,  12.4723261351,   0.0001575230)
 A3 = (  -0.0035329764,   0.0063827723, -20.0213340355)


Analysis of symmetry for initial positions (statically):
=====================================================================
 Subroutine PRICEL returns:
 Original cell was already a primitive cell.
 

 Routine SETGRP: Setting up the symmetry group for a 
 triclinic supercell.


 Subroutine GETGRP returns: Found  1 space group operations
 (whereof  1 operations were pure point group operations)
 out of a pool of  2 trial point group operations.


The static configuration has the point symmetry C_1 .


Analysis of symmetry for dynamics (positions and initial velocities):
=====================================================================
 Subroutine PRICEL returns:
 Original cell was already a primitive cell.
 

 Routine SETGRP: Setting up the symmetry group for a 
 triclinic supercell.


 Subroutine GETGRP returns: Found  1 space group operations
 (whereof  1 operations were pure point group operations)
 out of a pool of  2 trial point group operations.


The dynamic configuration has the point symmetry C_1 .


Analysis of structural, dynamic, and magnetic symmetry:
=====================================================================
 Subroutine PRICEL returns:
 Original cell was already a primitive cell.
 

 Routine SETGRP: Setting up the symmetry group for a 
 triclinic supercell.


 Subroutine GETGRP returns: Found  1 space group operations
 (whereof  1 operations were pure point group operations)
 out of a pool of  2 trial point group operations.


The magnetic configuration has the point symmetry C_1 .


 Subroutine INISYM returns: Found  1 space group operations
 (whereof  1 operations are pure point group operations),
 and found     1 'primitive' translations

 
 
 KPOINTS: KPOINTS created by Atomic Simulation Env

Automatic generation of k-mesh.
Space group operators:
 irot       det(A)        alpha          n_x          n_y          n_z        tau_x        tau_y        tau_z
    1     1.000000     0.000000     1.000000     0.000000     0.000000     0.000000     0.000000     0.000000
 
 Subroutine IBZKPT returns following result:
 ===========================================
 
 Found      2 irreducible k-points:
 
 Following reciprocal coordinates:
            Coordinates               Weight
  0.250000  0.250000 -0.000000      2.000000
 -0.250000  0.250000  0.000000      2.000000
 
 Following cartesian coordinates:
            Coordinates               Weight
  0.019639  0.020046  0.000003      2.000000
 -0.019651  0.020055  0.000010      2.000000
 
 
 Subroutine IBZKPT_HF returns following result:
 ==============================================
 
 Found      4 k-points in 1st BZ
 the following      4 k-points will be used (e.g. in the exchange kernel)
 Following reciprocal coordinates:   # in IRBZ
  0.250000  0.250000 -0.000000    0.25000000   1 t-inv F
 -0.250000  0.250000  0.000000    0.25000000   2 t-inv F
 -0.250000 -0.250000  0.000000    0.25000000   1 t-inv T
  0.250000 -0.250000 -0.000000    0.25000000   2 t-inv T


--------------------------------------------------------------------------------------------------------




 Dimension of arrays:
   k-points           NKPTS =      2   k-points in BZ     NKDIM =      4   number of bands    NBANDS=    156
   number of dos      NEDOS =    301   number of ions     NIONS =     58
   non local maximal  LDIM  =      6   non local SUM 2l+1 LMDIM =     18
   total plane-waves  NPLWV = ******
   max r-space proj   IRMAX =      1   max aug-charges    IRDMAX=  15698
   dimension x,y,z NGX =    96 NGY =   96 NGZ =  150
   dimension x,y,z NGXF=   192 NGYF=  192 NGZF=  300
   support grid    NGXF=   192 NGYF=  192 NGZF=  300
   ions per type =              52   4   2
   NGX,Y,Z   is equivalent  to a cutoff of  12.54, 12.80, 12.46 a.u.
   NGXF,Y,Z  is equivalent  to a cutoff of  25.08, 25.60, 24.91 a.u.

 SYSTEM =  unknown system                          
 POSCAR =   C  N Fe                                

 Startparameter for this run:
   NWRITE =      2    write-flag & timer
   PREC   = accura    normal or accurate (medium, high low for compatibility)
   ISTART =      1    job   : 0-new  1-cont  2-samecut
   ICHARG =      0    charge: 1-file 2-atom 10-const
   ISPIN  =      2    spin polarized calculation?
   LNONCOLLINEAR =      F non collinear calculations
   LSORBIT =      F    spin-orbit coupling
   INIWAV =      1    electr: 0-lowe 1-rand  2-diag
   LASPH  =      T    aspherical Exc in radial PAW
   METAGGA=      F    non-selfconsistent MetaGGA calc.

 Electronic Relaxation 1
   ENCUT  =  500.0 eV  36.75 Ry    6.06 a.u.  23.20 22.73 36.50*2*pi/ulx,y,z
   ENINI  =  500.0     initial cutoff
   ENAUG  =  644.9 eV  augmentation charge cutoff
   NELM   =    250;   NELMIN=  2; NELMDL=  0     # of ELM steps 
   EDIFF  = 0.1E-03   stopping-criterion for ELM
   LREAL  =      F    real-space projection
   NLSPLINE    = F    spline interpolate recip. space projectors
   LCOMPAT=      F    compatible to vasp.4.4
   GGA_COMPAT  = T    GGA compatible to vasp.4.4-vasp.4.6
   LMAXPAW     = -100 max onsite density
   LMAXMIX     =    2 max onsite mixed and CHGCAR
   VOSKOWN=      0    Vosko Wilk Nusair interpolation
   ROPT   =    0.00000   0.00000   0.00000
 Ionic relaxation
   EDIFFG = -.3E-01   stopping-criterion for IOM
   NSW    =      0    number of steps for IOM
   NBLOCK =      1;   KBLOCK =      1    inner block; outer block 
   IBRION =     -1    ionic relax: 0-MD 1-quasi-New 2-CG
   NFREE  =      1    steps in history (QN), initial steepest desc. (CG)
   ISIF   =      2    stress and relaxation
   IWAVPR =     10    prediction:  0-non 1-charg 2-wave 3-comb
   ISYM   =      3    0-nonsym 1-usesym 2-fastsym
   LCORR  =      T    Harris-Foulkes like correction to forces

   POTIM  = 0.5000    time-step for ionic-motion
   TEIN   =    0.0    initial temperature
   TEBEG  =    0.0;   TEEND  =   0.0 temperature during run
   SMASS  =  -3.00    Nose mass-parameter (am)
   estimated Nose-frequenzy (Omega)   =  0.10E-29 period in steps =****** mass=  -0.370E-26a.u.
   SCALEE = 1.0000    scale energy and forces
   NPACO  =    256;   APACO  = 16.0  distance and # of slots for P.C.
   PSTRESS=    0.0 pullay stress

  Mass of Ions in am
   POMASS =  12.01 14.00 55.85
  Ionic Valenz
   ZVAL   =   4.00  5.00  8.00
  Atomic Wigner-Seitz radii
   RWIGS  =  -1.00 -1.00 -1.00
  virtual crystal weights 
   VCA    =   1.00  1.00  1.00
   NELECT =     244.0000    total number of electrons
   NUPDOWN=      -1.0000    fix difference up-down

 DOS related values:
   EMIN   =  10.00;   EMAX   =-10.00  energy-range for DOS
   EFERMI =   0.00
   ISMEAR =     0;   SIGMA  =   0.10  broadening in eV -4-tet -1-fermi 0-gaus

 Electronic relaxation 2 (details)
   IALGO  =     53    algorithm
   LDIAG  =      T    sub-space diagonalisation (order eigenvalues)
   LSUBROT=      F    optimize rotation matrix (better conditioning)
   TURBO    =      0    0=normal 1=particle mesh
   IRESTART =      0    0=no restart 2=restart with 2 vectors
   NREBOOT  =      0    no. of reboots
   NMIN     =      0    reboot dimension
   EREF     =   0.00    reference energy to select bands
   IMIX   =      4    mixing-type and parameters
     AMIX     =   0.40;   BMIX     =  1.00
     AMIX_MAG =   1.60;   BMIX_MAG =  1.00
     AMIN     =   0.10
     WC   =   100.;   INIMIX=   1;  MIXPRE=   1;  MAXMIX= -45

 Intra band minimization:
   WEIMIN = 0.0000     energy-eigenvalue tresh-hold
   EBREAK =  0.16E-06  absolut break condition
   DEPER  =   0.30     relativ break condition  

   TIME   =   0.20     timestep for ELM

  volume/ion in A,a.u.               =      54.77       369.63
  Fermi-wavevector in a.u.,A,eV,Ry     =   0.695885  1.315033  6.588710  0.484257
  Thomas-Fermi vector in A             =   1.778782
 
 Write flags
   LWAVE        =      T    write WAVECAR
   LDOWNSAMPLE  =      F    k-point downsampling of WAVECAR
   LCHARG       =      T    write CHGCAR
   LVTOT        =      F    write LOCPOT, total local potential
   LVHAR        =      F    write LOCPOT, Hartree potential only
   LELF         =      F    write electronic localiz. function (ELF)
   LORBIT       =     11    0 simple, 1 ext, 2 COOP (PROOUT), +10 PAW based schemes


 Dipole corrections
   LMONO  =      F    monopole corrections only (constant potential shift)
   LDIPOL =      T    correct potential (dipole corrections)
   IDIPOL =      3    1-x, 2-y, 3-z, 4-all directions 
   EPSILON=  1.0000000 bulk dielectric constant

 Exchange correlation treatment:
   GGA     =    PE    GGA type
   LEXCH   =     8    internal setting for exchange type
   VOSKOWN=      0    Vosko Wilk Nusair interpolation
   EXXOEP  =     0    0=HF, 1=EXX-LHF (local Hartree Fock) 2=EXX OEP
   LHFCALC =     T    Hartree Fock is set to
   LSYMGRAD=     F    symmetrize gradient (conserves proper symmetry)
   PRECFOCK=normal    Normal, Fast or Accurate (Low or Medium for compatibility)
   LRHFCALC=     F    long range Hartree Fock
   LRSCOR  =     F    long range correlation only (use DFT for short range part)
   LTHOMAS =     F    Thomas Fermi screening in HF
   LMODELHF=     F    short range full HF, long range fraction AEXX
   ENCUT4O =  -1.0   cutoff for four orbital integrals eV
   LMAXFOCK=     4    L truncation for augmentation on plane wave grid
   LMAXFOCKAE=  -1    L truncation for all-electron charge restoration on plane wave grid
   NMAXFOCKAE=   1    number of basis functions for all-electron charge restoration
   LFOCKAEDFT=     F  apply the AE augmentation even for DFT
   NKREDX  =     1    reduce k-point grid by
   NKREDY  =     1    reduce k-point grid by
   NKREDZ  =     1    reduce k-point grid by
   SHIFTRED=     F    shift reduced grid of Gamma
   HFKIDENT=     F    idential grid for each k-point
   ODDONLY =     F    use only odd q-grid points
   EVENONLY=     F    use only even q-grid points
   HFALPHA =   -1.0000 decay constant for conv. correction
   MCALPHA =    0.0000 extent of test-charge in conv. correction in multipole expansion
   AEXX    =    0.2500 exact exchange contribution
   HFSCREEN=    0.2000 screening length (either q_TF or 0.3 A-1)
   HFSCREENC=   0.2000 screening length for correlation (either q_TF or 0.3 A-1)
   HFRCUT  =    0.0000 spherical cutoff for potential kernel
   ALDAX   =    0.7500 LDA exchange part
   AGGAX   =    0.7500 GGA exchange part
   ALDAC   =    1.0000 LDA correlation
   AGGAC   =    1.0000 GGA correlation
   ENCUTFOCK=  -1.0 apply spherical cutoff to Coloumb kernel
   NBANDSGWLOW=     1    first orbital included in HF term
   NBLOCK_FOCK=    64    blocking factor in FOCK_ACC
 Linear response parameters
   LEPSILON=     F    determine dielectric tensor
   LRPA    =     F    only Hartree local field effects (RPA)
   LNABLA  =     F    use nabla operator in PAW spheres
   LVEL    =     F    velocity operator in full k-point grid
   LINTERFAST=   F  fast interpolation
   KINTER  =     0    interpolate to denser k-point grid
   CSHIFT  =0.1000    complex shift for real part using Kramers Kronig
   OMEGAMAX=  -1.0    maximum frequency
   DEG_THRESHOLD= 0.2000000E-02 threshold for treating states as degnerate
   RTIME   =   -0.100 relaxation time in fs
  (WPLASMAI=    0.000 imaginary part of plasma frequency in eV, 0.658/RTIME)
   DFIELD  = 0.0000000 0.0000000 0.0000000 field for delta impulse in time
 
 Orbital magnetization related:
   ORBITALMAG=     F  switch on orbital magnetization
   LCHIMAG   =     F  perturbation theory with respect to B field
   DQ        =  0.001000  dq finite difference perturbation B field
   LLRAUG    =     F  two centre corrections for induced B field



--------------------------------------------------------------------------------------------------------


 Static calculation
 charge density and potential will be updated during run
 spin polarized calculation
 Conjugate gradient for all bands (Freysoldt, et al. PRB 79, 241103 (2009))
 perform sub-space diagonalisation
    before iterative eigenvector-optimisation
 modified Broyden-mixing scheme, WC =      100.0
 initial mixing is a Kerker type mixing with AMIX =  0.4000 and BMIX =      1.0000
 Hartree-type preconditioning will be used
 using additional bands           34
 reciprocal scheme for non local part
 use partial core corrections
 no Harris-corrections to forces 
 use gradient corrections 
 use of overlap-Matrix (Vanderbilt PP)
 Gauss-broadening in eV      SIGMA  =   0.10


--------------------------------------------------------------------------------------------------------


  energy-cutoff  :      500.00
  volume of cell :     3176.88
      direct lattice vectors                 reciprocal lattice vectors
    12.726016366  0.003786281  0.000193843     0.078579191 -0.000019513 -0.000013872
     0.003096287 12.468539854 -0.000036320    -0.000023862  0.080201859  0.000025572
     0.003532976 -0.006382772 20.021334036    -0.000000761  0.000000146  0.049946722

  length of vectors
    12.726016931 12.468540238 20.021335365     0.078579195  0.080201867  0.049946722


 
 old parameters found on file WAVECAR:
  energy-cutoff  :      500.00
  volume of cell :     3176.88
      direct lattice vectors                 reciprocal lattice vectors
    12.674500000  0.000000000  0.000000000     0.078898576  0.000003993 -0.000012530
    -0.000630764 12.462099984  0.000000000     0.000000000  0.080243298  0.000025209
     0.003194462 -0.006318555 20.113098754     0.000000000  0.000000000  0.049718843

  length of vectors

 
 k-points in units of 2pi/SCALE and weight: KPOINTS created by Atomic Simulation Env
   0.01963883  0.02004559  0.00000293       0.500
  -0.01965076  0.02005534  0.00000986       0.500
 
 k-points in reciprocal lattice and weights: KPOINTS created by Atomic Simulation Env
   0.25000000  0.25000000 -0.00000000       0.500
  -0.25000000  0.25000000  0.00000000       0.500
 
 position of ions in fractional coordinates (direct lattice) 
   0.22066290  0.99951615  0.50001603
   0.05508331  0.10045834  0.50001626
   0.10942079  0.99963703  0.50000771
   0.27617910  0.09883156  0.49999994
   0.22348141  0.19957725  0.49997498
   0.05604616  0.30044522  0.50002063
   0.11124299  0.20042154  0.50001061
   0.28331955  0.29790438  0.49989324
   0.22675413  0.39884218  0.49990109
   0.05701422  0.50030194  0.50001408
   0.11391369  0.39986285  0.49998772
   0.28249298  0.50056823  0.49982816
   0.22652728  0.60148586  0.49994490
   0.05572128  0.69939664  0.50002360
   0.11366375  0.60037534  0.50000724
   0.28355246  0.70161332  0.49997068
   0.22377411  0.79993470  0.50001234
   0.05491185  0.89901668  0.50000355
   0.11123164  0.79917220  0.50001171
   0.27674579  0.90033384  0.50002491
   0.55466634  0.99956371  0.50004414
   0.38737541  0.09776248  0.49999559
   0.44409811  0.99943421  0.50004263
   0.60998547  0.09893542  0.50000540
   0.55415168  0.19726649  0.49991440
   0.44200723  0.19544174  0.49991156
   0.55546438  0.80196271  0.49999895
   0.38835171  0.90092728  0.50004877
   0.44326379  0.80283829  0.50002385
   0.61027821  0.90046644  0.50003688
   0.88848746  0.99983114  0.50000968
   0.72150461  0.10000401  0.50000815
   0.77714263  0.00009527  0.50001981
   0.94324918  0.10055512  0.50001802
   0.88751325  0.20069543  0.50001872
   0.71658057  0.30007703  0.49989999
   0.77498116  0.20075042  0.49998775
   0.94380025  0.30047401  0.50002757
   0.88713811  0.40036109  0.50000097
   0.71822685  0.49969291  0.49984014
   0.77499278  0.39977193  0.49990246
   0.94364504  0.50046077  0.50001951
   0.88595129  0.60025491  0.50000997
   0.71490659  0.70086365  0.49996773
   0.77274989  0.60056751  0.49994901
   0.94321109  0.69935661  0.50002395
   0.88706502  0.79890852  0.50001244
   0.72175833  0.90034642  0.50002434
   0.77442194  0.79938483  0.50001103
   0.94292941  0.89899888  0.50000435
   0.60431496  0.29967111  0.49980496
   0.60848207  0.49614582  0.49970305
   0.39193958  0.29329500  0.49983434
   0.38694083  0.50073102  0.49961794
   0.39257031  0.70511845  0.49994426
   0.60533627  0.70272902  0.49992236
   0.49650351  0.41046048  0.49947132
   0.49666530  0.59067461  0.49975460
 
 position of ions in cartesian coordinates  (Angst):
   2.81302096 12.46015091 10.01099444
   0.70306868  1.24958587 10.01099965
   1.39735242 12.46123696 10.01080627
   3.51673223  1.23013951 10.01071577
   2.84641249  2.48609189 10.01020213
   0.71594114  3.74313390 10.01108007
   1.41806724  2.49619374 10.01089375
   3.60821775  3.71231466 10.00857367
   2.88867788  4.97064737 10.00871623
   0.72887953  6.23505907 10.01094186
   1.45267200  4.98294592 10.01042873
   3.59832613  6.23923426 10.00726319
   2.88641860  7.49731704 10.00958591
   0.71304204  8.71747436 10.01112485
   1.45011220  7.48304277 10.01081213
   3.61243209  8.74597606 10.01010949
   2.85199630  9.97167352 10.01092850
   0.70335924 11.20644178 10.01071611
   1.41977669  9.96174012 10.01089396
   3.52642577 11.22370466 10.01118662
   7.06355448 12.46200843 10.01162200
   4.93181496  1.21723078 10.01065027
   5.65646096 12.45997510 10.01157034
   7.76475795  1.23269833 10.01088972
   7.05452035  2.45853244 10.00905337
   5.62736251  2.43535592 10.00897487
   7.07309834  9.99821577 10.01072445
   4.94672646 11.23152638 10.01168607
   5.64523461 10.00870798 10.01120129
   7.77096523 11.22662077 10.01149105
  11.31176823 12.46660698 10.01099680
   9.18395557  1.24644443 10.01096639
   9.89169663  0.00093886 10.01121418
  12.00588240  1.25415543 10.01120709
  11.29689614  2.50254789 10.01120652
   9.12191137  3.74104485 10.00879271
   9.86481089  2.50280754 10.01056468
  12.01351432  3.74685407 10.01139112
  11.29274029  4.99208575 10.01084384
   9.14347976  6.22997007 10.00758754
   9.86557480  4.98431582 10.00884986
  12.01215834  6.24039639 10.01122239
  11.27825569  7.48446524 10.01101661
   9.10184940  8.73826198 10.01013409
   9.83765354  7.48793472 10.00977412
  12.00725172  8.72033549 10.01130396
  11.29304411  9.96138995 10.01105909
   9.18966268 11.22554644 10.01126163
   9.85954799  9.96690240 10.01100894
  12.00428513 11.20958213 10.01090433
   7.69321574  3.73555919 10.00686831
   7.74685437  6.18532837 10.00482155
   4.99050359  3.65525409 10.00741565
   4.92753089  6.24166085 10.00307458
   4.99980571  8.79009285 10.00960149
   7.70746130  8.76110588 10.00920438
   6.32154727  5.11653476 10.00016350
   6.32416526  7.36354060 10.00582857
 


--------------------------------------------------------------------------------------------------------


 k-point  1 :   0.2500 0.2500-0.0000  plane waves:   80636
 k-point  2 :  -0.2500 0.2500 0.0000  plane waves:   80639

 maximum and minimum number of plane-waves per node :      2549     2493

 maximum number of plane-waves:     80639
 maximum index in each direction: 
   IXMAX=   23   IYMAX=   22   IZMAX=   36
   IXMIN=  -23   IYMIN=  -22   IZMIN=  -36


 parallel 3D FFT for wavefunctions:
    minimum data exchange during FFTs selected (reduces bandwidth)
 parallel 3D FFT for charge:
    minimum data exchange during FFTs selected (reduces bandwidth)


 FFT grid for exact exchange (Hartree Fock) 
  NGX = 70; NGY = 70; NGZ =112

 
 Radii for the augmentation spheres in the non-local exchange
 for species   1 augmentation radius   0.874 (default was   0.699)
       energy cutoff for augmentation   2000.0
 for species   2 augmentation radius   0.886 (default was   0.709)
       energy cutoff for augmentation   2000.0
 for species   3 augmentation radius   1.263 (default was   1.010)
       energy cutoff for augmentation   2000.0

 real space projection operators:
  total allocation   :       2440.51 KBytes
  max/ min on nodes  :        129.51         37.41

 Maximum index for augmentation-charges in exchange          133
  SETUP_FOCK is finished

 total amount of memory used by VASP MPI-rank0   161970. kBytes
=======================================================================

   base      :      30000. kBytes
   nonl-proj :       4582. kBytes
   fftplans  :      14250. kBytes
   grid      :      34043. kBytes
   one-center:         62. kBytes
   HF        :         23. kBytes
   nonlr-proj:       1646. kBytes
   wavefun   :      77364. kBytes
 
     INWAV:  cpu time    3.5744: real time    3.5747
 Broyden mixing: mesh for mixing (old mesh)
   NGX = 47   NGY = 45   NGZ = 73
  (NGX  =192   NGY  =192   NGZ  =300)
  gives a total of 154395 points

 charge density for first step will be calculated from the start-wavefunctions


--------------------------------------------------------------------------------------------------------


 Maximum index for augmentation-charges          740 (set IRDMAX)


--------------------------------------------------------------------------------------------------------


 initial charge from wavefunction
 First call to EWALD:  gamma=   0.121
 Maximum number of real-space cells 3x 3x 2
 Maximum number of reciprocal cells 2x 2x 4

    FEWALD:  cpu time    0.0041: real time    0.0041


--------------------------------------- Iteration      1(   1)  ---------------------------------------


    POTLOK:  cpu time    1.3826: real time    1.3831
    SETDIJ:  cpu time    2.0901: real time    2.0908
    TRIAL :  cpu time  521.8119: real time  521.9696
    CORREC:  cpu time    0.0023: real time    0.0025
    CHARGE:  cpu time    1.6839: real time    1.6881
    --------------------------------------------
      LOOP:  cpu time  526.9863: real time  527.1537

 eigenvalue-minimisations  :     0
 total energy-change (2. order) :-0.6081171E+03  (-0.4820756E+00)
 number of electron     244.0000003 magnetization       2.1240532
 augmentation part       13.8919202 magnetization       2.1815656

 DIPCOR: dipole corrections for dipol
 direction  3 min pos     1,
 dipolmoment           0.000000     -0.000001      0.001607 electrons x Angstroem
 Tr[quadrupol]     -6669.262560

 energy correction for charged system         0.000000 eV
 dipol+quadrupol energy correction            0.000000 eV
 added-field ion interaction          0.000000 eV  (added to PSCEN)


 Free energy of the ion-electron system (eV)
  ---------------------------------------------------
  alpha Z        PSCENC =       101.91150478
  Ewald energy   TEWEN  =     39531.35123854
  -Hartree energ DENC   =    -47968.34494543
  -exchange      EXHF   =       549.03416782
  -V(xc)+E(xc)   XCENC  =       614.78855494
  PAW double counting   =     26281.26388655   -26328.23680364
  entropy T*S    EENTRO =        -0.01627736
  eigenvalues    EBANDS =     -3174.82062505
  atomic energy  EATOM  =      9784.95219456
  ---------------------------------------------------
  free energy    TOTEN  =      -608.11712274 eV

  energy without entropy =     -608.10084538  energy(sigma->0) =     -608.10898406
  exchange ACFDT corr.  =        -0.01942301  see jH, gK, PRB 81, 115126


--------------------------------------------------------------------------------------------------------




--------------------------------------- Iteration      1(   2)  ---------------------------------------


    POTLOK:  cpu time    1.3900: real time    1.3900
    SETDIJ:  cpu time    2.0910: real time    2.0910
    TRIAL :  cpu time  521.3992: real time  521.5516
    CORREC:  cpu time    0.0023: real time    0.0025
    CHARGE:  cpu time    1.6805: real time    1.6805
    --------------------------------------------
      LOOP:  cpu time  526.5660: real time  526.7186

 eigenvalue-minimisations  :     0
 total energy-change (2. order) :-0.4011938E+00  (-0.4688433E+00)
 number of electron     244.0000003 magnetization       2.1362973
 augmentation part       13.8712826 magnetization       2.2731741

 DIPCOR: dipole corrections for dipol
 direction  3 min pos     1,
 dipolmoment           0.000000     -0.000001      0.002209 electrons x Angstroem
 Tr[quadrupol]     -6669.060371

 energy correction for charged system         0.000000 eV
 dipol+quadrupol energy correction            0.000000 eV
 added-field ion interaction          0.000000 eV  (added to PSCEN)


 Free energy of the ion-electron system (eV)
  ---------------------------------------------------
  alpha Z        PSCENC =       101.91150485
  Ewald energy   TEWEN  =     39531.35123854
  -Hartree energ DENC   =    -47950.25928974
  -exchange      EXHF   =       548.89870258
  -V(xc)+E(xc)   XCENC  =       614.35911607
  PAW double counting   =     26405.48157677   -26451.70658211
  entropy T*S    EENTRO =        -0.01695444
  eigenvalues    EBANDS =     -3193.49050073
  atomic energy  EATOM  =      9784.95219456
  ---------------------------------------------------
  free energy    TOTEN  =      -608.51831657 eV

  energy without entropy =     -608.50136214  energy(sigma->0) =     -608.50983935
  exchange ACFDT corr.  =        -0.01717328  see jH, gK, PRB 81, 115126


--------------------------------------------------------------------------------------------------------




--------------------------------------- Iteration      1(   3)  ---------------------------------------


    POTLOK:  cpu time    1.4331: real time    1.4331
    SETDIJ:  cpu time    2.0868: real time    2.0870
    TRIAL :  cpu time  521.9170: real time  522.0751
    CORREC:  cpu time    0.0022: real time    0.0025
    CHARGE:  cpu time    1.6805: real time    1.6806
    --------------------------------------------
      LOOP:  cpu time  527.1218: real time  527.4873

 eigenvalue-minimisations  :     0
 total energy-change (2. order) :-0.3661779E+00  (-0.3097074E+00)
 number of electron     244.0000003 magnetization       2.1549907
 augmentation part       13.8697595 magnetization       2.3567678

 DIPCOR: dipole corrections for dipol
 direction  3 min pos     1,
 dipolmoment           0.000000     -0.000001      0.002444 electrons x Angstroem
 Tr[quadrupol]     -6668.877242

 energy correction for charged system         0.000000 eV
 dipol+quadrupol energy correction            0.000000 eV
 added-field ion interaction          0.000000 eV  (added to PSCEN)


 Free energy of the ion-electron system (eV)
  ---------------------------------------------------
  alpha Z        PSCENC =       101.91150488
  Ewald energy   TEWEN  =     39531.35123854
  -Hartree energ DENC   =    -47934.75854909
  -exchange      EXHF   =       548.86046306
  -V(xc)+E(xc)   XCENC  =       613.97452527
  PAW double counting   =     26569.90097080   -26615.87302961
  entropy T*S    EENTRO =        -0.01848482
  eigenvalues    EBANDS =     -3209.18685844
  atomic energy  EATOM  =      9784.95219456
  ---------------------------------------------------
  free energy    TOTEN  =      -608.88449448 eV

  energy without entropy =     -608.86600966  energy(sigma->0) =     -608.87525207
  exchange ACFDT corr.  =        -0.01605198  see jH, gK, PRB 81, 115126


--------------------------------------------------------------------------------------------------------




--------------------------------------- Iteration      1(   4)  ---------------------------------------


    POTLOK:  cpu time    1.4015: real time    1.4016
    SETDIJ:  cpu time    2.0880: real time    2.0880
    TRIAL :  cpu time  521.8444: real time  522.0188
    CORREC:  cpu time    0.0022: real time    0.0024
    CHARGE:  cpu time    1.6788: real time    1.6789
    --------------------------------------------
      LOOP:  cpu time  527.0173: real time  527.1922

 eigenvalue-minimisations  :     0
 total energy-change (2. order) :-0.2462119E+00  (-0.2136187E+00)
 number of electron     244.0000003 magnetization       2.1837039
 augmentation part       13.8693706 magnetization       2.4260781

 DIPCOR: dipole corrections for dipol
 direction  3 min pos     1,
 dipolmoment           0.000000     -0.000001      0.002262 electrons x Angstroem
 Tr[quadrupol]     -6668.817712

 energy correction for charged system         0.000000 eV
 dipol+quadrupol energy correction            0.000000 eV
 added-field ion interaction          0.000000 eV  (added to PSCEN)


 Free energy of the ion-electron system (eV)
  ---------------------------------------------------
  alpha Z        PSCENC =       101.91150486
  Ewald energy   TEWEN  =     39531.35123854
  -Hartree energ DENC   =    -47928.80766451
  -exchange      EXHF   =       549.07062548
  -V(xc)+E(xc)   XCENC  =       613.84770024
  PAW double counting   =     26714.98760058   -26760.99617887
  entropy T*S    EENTRO =        -0.02069771
  eigenvalues    EBANDS =     -3215.42924247
  atomic energy  EATOM  =      9784.95219456
  ---------------------------------------------------
  free energy    TOTEN  =      -609.13070642 eV

  energy without entropy =     -609.11000871  energy(sigma->0) =     -609.12035757
  exchange ACFDT corr.  =        -0.01659160  see jH, gK, PRB 81, 115126


--------------------------------------------------------------------------------------------------------




--------------------------------------- Iteration      1(   5)  ---------------------------------------


    POTLOK:  cpu time    1.3984: real time    1.3984
    SETDIJ:  cpu time    2.0798: real time    2.0837
    TRIAL :  cpu time  520.4063: real time  520.5669
    CORREC:  cpu time    0.0023: real time    0.0025
    CHARGE:  cpu time    1.6772: real time    1.6772
    --------------------------------------------
      LOOP:  cpu time  525.5663: real time  525.7311

 eigenvalue-minimisations  :     0
 total energy-change (2. order) :-0.1797026E+00  (-0.1645408E+00)
 number of electron     244.0000003 magnetization       2.2190344
 augmentation part       13.8731769 magnetization       2.4812539

 DIPCOR: dipole corrections for dipol
 direction  3 min pos     1,
 dipolmoment           0.000000     -0.000001      0.002005 electrons x Angstroem
 Tr[quadrupol]     -6668.851245

 energy correction for charged system         0.000000 eV
 dipol+quadrupol energy correction            0.000000 eV
 added-field ion interaction          0.000000 eV  (added to PSCEN)


 Free energy of the ion-electron system (eV)
  ---------------------------------------------------
  alpha Z        PSCENC =       101.91150482
  Ewald energy   TEWEN  =     39531.35123854
  -Hartree energ DENC   =    -47929.60187140
  -exchange      EXHF   =       549.43250248
  -V(xc)+E(xc)   XCENC  =       613.92419698
  PAW double counting   =     26820.44042092   -26866.46018737
  entropy T*S    EENTRO =        -0.02319046
  eigenvalues    EBANDS =     -3215.23971084
  atomic energy  EATOM  =      9784.95219456
  ---------------------------------------------------
  free energy    TOTEN  =      -609.31040903 eV

  energy without entropy =     -609.28721857  energy(sigma->0) =     -609.29881380
  exchange ACFDT corr.  =        -0.01779646  see jH, gK, PRB 81, 115126


--------------------------------------------------------------------------------------------------------




--------------------------------------- Iteration      1(   6)  ---------------------------------------


    POTLOK:  cpu time    1.3982: real time    1.3986
    SETDIJ:  cpu time    2.0855: real time    2.0855
    TRIAL :  cpu time  519.6729: real time  519.8627
    CORREC:  cpu time    0.0023: real time    0.0025
    CHARGE:  cpu time    1.6759: real time    1.6759
    --------------------------------------------
      LOOP:  cpu time  524.8367: real time  525.0293

 eigenvalue-minimisations  :     0
 total energy-change (2. order) :-0.1420991E+00  (-0.1287995E+00)
 number of electron     244.0000003 magnetization       2.2579951
 augmentation part       13.8822391 magnetization       2.5261640

 DIPCOR: dipole corrections for dipol
 direction  3 min pos     1,
 dipolmoment           0.000000     -0.000001      0.001773 electrons x Angstroem
 Tr[quadrupol]     -6668.917474

 energy correction for charged system         0.000000 eV
 dipol+quadrupol energy correction            0.000000 eV
 added-field ion interaction          0.000000 eV  (added to PSCEN)


 Free energy of the ion-electron system (eV)
  ---------------------------------------------------
  alpha Z        PSCENC =       101.91150480
  Ewald energy   TEWEN  =     39531.35123854
  -Hartree energ DENC   =    -47933.40716846
  -exchange      EXHF   =       549.82079699
  -V(xc)+E(xc)   XCENC  =       614.08697169
  PAW double counting   =     26889.21788184   -26935.27833745
  entropy T*S    EENTRO =        -0.02567490
  eigenvalues    EBANDS =     -3212.08440018
  atomic energy  EATOM  =      9784.95219456
  ---------------------------------------------------
  free energy    TOTEN  =      -609.45250814 eV

  energy without entropy =     -609.42683323  energy(sigma->0) =     -609.43967069
  exchange ACFDT corr.  =        -0.01940804  see jH, gK, PRB 81, 115126


--------------------------------------------------------------------------------------------------------




--------------------------------------- Iteration      1(   7)  ---------------------------------------


    POTLOK:  cpu time    1.3950: real time    1.3952
    SETDIJ:  cpu time    2.0903: real time    2.0904
    TRIAL :  cpu time  519.9759: real time  520.1899
    CORREC:  cpu time    0.0022: real time    0.0024
    CHARGE:  cpu time    1.6717: real time    1.6721
    --------------------------------------------
      LOOP:  cpu time  525.1368: real time  525.3518

 eigenvalue-minimisations  :     0
 total energy-change (2. order) :-0.1136225E+00  (-0.1029758E+00)
 number of electron     244.0000003 magnetization       2.3013562
 augmentation part       13.8914241 magnetization       2.5650862

 DIPCOR: dipole corrections for dipol
 direction  3 min pos     1,
 dipolmoment           0.000000     -0.000000      0.001532 electrons x Angstroem
 Tr[quadrupol]     -6668.976630

 energy correction for charged system         0.000000 eV
 dipol+quadrupol energy correction            0.000000 eV
 added-field ion interaction          0.000000 eV  (added to PSCEN)


 Free energy of the ion-electron system (eV)
  ---------------------------------------------------
  alpha Z        PSCENC =       101.91150478
  Ewald energy   TEWEN  =     39531.35123854
  -Hartree energ DENC   =    -47937.48460412
  -exchange      EXHF   =       550.15969365
  -V(xc)+E(xc)   XCENC  =       614.25041363
  PAW double counting   =     26930.99073297   -26977.16281953
  entropy T*S    EENTRO =        -0.02815301
  eigenvalues    EBANDS =     -3208.50881019
  atomic energy  EATOM  =      9784.95219456
  ---------------------------------------------------
  free energy    TOTEN  =      -609.56613062 eV

  energy without entropy =     -609.53797761  energy(sigma->0) =     -609.55205411
  exchange ACFDT corr.  =        -0.02121949  see jH, gK, PRB 81, 115126


--------------------------------------------------------------------------------------------------------




--------------------------------------- Iteration      1(   8)  ---------------------------------------


    POTLOK:  cpu time    1.3937: real time    1.3939
    SETDIJ:  cpu time    2.0832: real time    2.0835
    TRIAL :  cpu time  519.7072: real time  519.8786
    CORREC:  cpu time    0.0021: real time    0.0024
    CHARGE:  cpu time    1.6717: real time    1.6717
    --------------------------------------------
      LOOP:  cpu time  524.8599: real time  525.0320

 eigenvalue-minimisations  :     0
 total energy-change (2. order) :-0.9230722E-01  (-0.8379089E-01)
 number of electron     244.0000003 magnetization       2.3513408
 augmentation part       13.8972913 magnetization       2.6008458

 DIPCOR: dipole corrections for dipol
 direction  3 min pos     1,
 dipolmoment           0.000000     -0.000000      0.001303 electrons x Angstroem
 Tr[quadrupol]     -6669.012995

 energy correction for charged system         0.000000 eV
 dipol+quadrupol energy correction            0.000000 eV
 added-field ion interaction          0.000000 eV  (added to PSCEN)


 Free energy of the ion-electron system (eV)
  ---------------------------------------------------
  alpha Z        PSCENC =       101.91150476
  Ewald energy   TEWEN  =     39531.35123854
  -Hartree energ DENC   =    -47940.25571099
  -exchange      EXHF   =       550.42135275
  -V(xc)+E(xc)   XCENC  =       614.37366515
  PAW double counting   =     26954.69939724   -27000.99120828
  entropy T*S    EENTRO =        -0.03067062
  eigenvalues    EBANDS =     -3206.09271853
  atomic energy  EATOM  =      9784.95219456
  ---------------------------------------------------
  free energy    TOTEN  =      -609.65843784 eV

  energy without entropy =     -609.62776722  energy(sigma->0) =     -609.64310253
  exchange ACFDT corr.  =        -0.02317987  see jH, gK, PRB 81, 115126


--------------------------------------------------------------------------------------------------------




--------------------------------------- Iteration      1(   9)  ---------------------------------------


    POTLOK:  cpu time    1.3911: real time    1.3912
    SETDIJ:  cpu time    2.0878: real time    2.0878
    TRIAL :  cpu time  519.5747: real time  519.7197
    CORREC:  cpu time    0.0022: real time    0.0025
    CHARGE:  cpu time    1.6679: real time    1.6679
    --------------------------------------------
      LOOP:  cpu time  524.7256: real time  524.8709

 eigenvalue-minimisations  :     0
 total energy-change (2. order) :-0.7624987E-01  (-0.6963098E-01)
 number of electron     244.0000003 magnetization       2.4090619
 augmentation part       13.9003728 magnetization       2.6350103

 DIPCOR: dipole corrections for dipol
 direction  3 min pos     1,
 dipolmoment           0.000000     -0.000000      0.001101 electrons x Angstroem
 Tr[quadrupol]     -6669.028733

 energy correction for charged system         0.000000 eV
 dipol+quadrupol energy correction            0.000000 eV
 added-field ion interaction          0.000000 eV  (added to PSCEN)


 Free energy of the ion-electron system (eV)
  ---------------------------------------------------
  alpha Z        PSCENC =       101.91150474
  Ewald energy   TEWEN  =     39531.35123854
  -Hartree energ DENC   =    -47941.49989138
  -exchange      EXHF   =       550.61411291
  -V(xc)+E(xc)   XCENC  =       614.45366072
  PAW double counting   =     26967.39582842   -27013.76879474
  entropy T*S    EENTRO =        -0.03316009
  eigenvalues    EBANDS =     -3205.11387084
  atomic energy  EATOM  =      9784.95219456
  ---------------------------------------------------
  free energy    TOTEN  =      -609.73468770 eV

  energy without entropy =     -609.70152761  energy(sigma->0) =     -609.71810766
  exchange ACFDT corr.  =        -0.02526521  see jH, gK, PRB 81, 115126


--------------------------------------------------------------------------------------------------------




--------------------------------------- Iteration      1(  10)  ---------------------------------------


    POTLOK:  cpu time    1.3874: real time    1.3877
    SETDIJ:  cpu time    2.0789: real time    2.0830
    TRIAL :  cpu time  519.9570: real time  520.1096
    CORREC:  cpu time    0.0022: real time    0.0025
    CHARGE:  cpu time    1.6731: real time    1.6732
    --------------------------------------------
      LOOP:  cpu time  525.1006: real time  525.2580

 eigenvalue-minimisations  :     0
 total energy-change (2. order) :-0.6406705E-01  (-0.5877888E-01)
 number of electron     244.0000003 magnetization       2.4746352
 augmentation part       13.9026365 magnetization       2.6683179

 DIPCOR: dipole corrections for dipol
 direction  3 min pos     1,
 dipolmoment           0.000000     -0.000000      0.000924 electrons x Angstroem
 Tr[quadrupol]     -6669.033652

 energy correction for charged system         0.000000 eV
 dipol+quadrupol energy correction            0.000000 eV
 added-field ion interaction          0.000000 eV  (added to PSCEN)


 Free energy of the ion-electron system (eV)
  ---------------------------------------------------
  alpha Z        PSCENC =       101.91150473
  Ewald energy   TEWEN  =     39531.35123854
  -Hartree energ DENC   =    -47941.82072490
  -exchange      EXHF   =       550.76144246
  -V(xc)+E(xc)   XCENC  =       614.50590240
  PAW double counting   =     26974.10139711   -27020.52651854
  entropy T*S    EENTRO =        -0.03549136
  eigenvalues    EBANDS =     -3205.00203103
  atomic energy  EATOM  =      9784.95219456
  ---------------------------------------------------
  free energy    TOTEN  =      -609.79875476 eV

  energy without entropy =     -609.76326340  energy(sigma->0) =     -609.78100908
  exchange ACFDT corr.  =        -0.02736325  see jH, gK, PRB 81, 115126


--------------------------------------------------------------------------------------------------------




--------------------------------------- Iteration      1(  11)  ---------------------------------------


    POTLOK:  cpu time    1.3872: real time    1.3873
    SETDIJ:  cpu time    2.0886: real time    2.0886
    TRIAL :  cpu time  519.5448: real time  519.7178
    CORREC:  cpu time    0.0023: real time    0.0025
    CHARGE:  cpu time    1.6682: real time    1.6682
    --------------------------------------------
      LOOP:  cpu time  524.6929: real time  524.8666

 eigenvalue-minimisations  :     0
 total energy-change (2. order) :-0.5461180E-01  (-0.5041920E-01)
 number of electron     244.0000003 magnetization       2.5480555
 augmentation part       13.9050374 magnetization       2.7007934

 DIPCOR: dipole corrections for dipol
 direction  3 min pos     1,
 dipolmoment           0.000000     -0.000000      0.000757 electrons x Angstroem
 Tr[quadrupol]     -6669.036298

 energy correction for charged system         0.000000 eV
 dipol+quadrupol energy correction            0.000000 eV
 added-field ion interaction          0.000000 eV  (added to PSCEN)


 Free energy of the ion-electron system (eV)
  ---------------------------------------------------
  alpha Z        PSCENC =       101.91150473
  Ewald energy   TEWEN  =     39531.35123854
  -Hartree energ DENC   =    -47941.88984268
  -exchange      EXHF   =       550.88469133
  -V(xc)+E(xc)   XCENC  =       614.54695925
  PAW double counting   =     26978.07886225   -27024.55471933
  entropy T*S    EENTRO =        -0.03753834
  eigenvalues    EBANDS =     -3205.09876385
  atomic energy  EATOM  =      9784.95219456
  ---------------------------------------------------
  free energy    TOTEN  =      -609.85336656 eV

  energy without entropy =     -609.81582822  energy(sigma->0) =     -609.83459739
  exchange ACFDT corr.  =        -0.02931683  see jH, gK, PRB 81, 115126


--------------------------------------------------------------------------------------------------------




--------------------------------------- Iteration      1(  12)  ---------------------------------------


    POTLOK:  cpu time    1.3826: real time    1.3827
    SETDIJ:  cpu time    2.0821: real time    2.0821
    TRIAL :  cpu time  520.2574: real time  520.4216
    CORREC:  cpu time    0.0023: real time    0.0026
    CHARGE:  cpu time    1.6673: real time    1.6673
    --------------------------------------------
      LOOP:  cpu time  525.3939: real time  525.5586

 eigenvalue-minimisations  :     0
 total energy-change (2. order) :-0.4725183E-01  (-0.4392841E-01)
 number of electron     244.0000003 magnetization       2.6291575
 augmentation part       13.9074890 magnetization       2.7321841

 DIPCOR: dipole corrections for dipol
 direction  3 min pos     1,
 dipolmoment           0.000000     -0.000000      0.000595 electrons x Angstroem
 Tr[quadrupol]     -6669.039985

 energy correction for charged system         0.000000 eV
 dipol+quadrupol energy correction            0.000000 eV
 added-field ion interaction          0.000000 eV  (added to PSCEN)


 Free energy of the ion-electron system (eV)
  ---------------------------------------------------
  alpha Z        PSCENC =       101.91150472
  Ewald energy   TEWEN  =     39531.35123854
  -Hartree energ DENC   =    -47942.01610146
  -exchange      EXHF   =       550.99539994
  -V(xc)+E(xc)   XCENC  =       614.58527248
  PAW double counting   =     26981.19385807   -27027.72845155
  entropy T*S    EENTRO =        -0.03918744
  eigenvalues    EBANDS =     -3205.10799533
  atomic energy  EATOM  =      9784.95219456
  ---------------------------------------------------
  free energy    TOTEN  =      -609.90061839 eV

  energy without entropy =     -609.86143095  energy(sigma->0) =     -609.88102467
  exchange ACFDT corr.  =        -0.03097758  see jH, gK, PRB 81, 115126


--------------------------------------------------------------------------------------------------------




--------------------------------------- Iteration      1(  13)  ---------------------------------------


    POTLOK:  cpu time    1.3863: real time    1.3865
    SETDIJ:  cpu time    2.0864: real time    2.0865
    TRIAL :  cpu time  519.7545: real time  519.9243
    CORREC:  cpu time    0.0021: real time    0.0023
    CHARGE:  cpu time    1.6723: real time    1.6723
    --------------------------------------------
      LOOP:  cpu time  524.9039: real time  525.0743

 eigenvalue-minimisations  :     0
 total energy-change (2. order) :-0.4147338E-01  (-0.3886532E-01)
 number of electron     244.0000003 magnetization       2.7172179
 augmentation part       13.9096762 magnetization       2.7623047

 DIPCOR: dipole corrections for dipol
 direction  3 min pos     1,
 dipolmoment           0.000000     -0.000000      0.000442 electrons x Angstroem
 Tr[quadrupol]     -6669.044322

 energy correction for charged system         0.000000 eV
 dipol+quadrupol energy correction            0.000000 eV
 added-field ion interaction          0.000000 eV  (added to PSCEN)


 Free energy of the ion-electron system (eV)
  ---------------------------------------------------
  alpha Z        PSCENC =       101.91150472
  Ewald energy   TEWEN  =     39531.35123854
  -Hartree energ DENC   =    -47942.20380711
  -exchange      EXHF   =       551.09713623
  -V(xc)+E(xc)   XCENC  =       614.62214271
  PAW double counting   =     26984.39362540   -27030.98924120
  entropy T*S    EENTRO =        -0.04034797
  eigenvalues    EBANDS =     -3205.03769817
  atomic energy  EATOM  =      9784.95219456
  ---------------------------------------------------
  free energy    TOTEN  =      -609.94209177 eV

  energy without entropy =     -609.90174380  energy(sigma->0) =     -609.92191778
  exchange ACFDT corr.  =        -0.03221243  see jH, gK, PRB 81, 115126


--------------------------------------------------------------------------------------------------------




--------------------------------------- Iteration      1(  14)  ---------------------------------------


    POTLOK:  cpu time    1.3768: real time    1.3772
    SETDIJ:  cpu time    2.0851: real time    2.0851
    TRIAL :  cpu time  520.3684: real time  520.5280
    CORREC:  cpu time    0.0023: real time    0.0025
    CHARGE:  cpu time    1.6700: real time    1.6701
    --------------------------------------------
      LOOP:  cpu time  525.5046: real time  525.6649

 eigenvalue-minimisations  :     0
 total energy-change (2. order) :-0.3690677E-01  (-0.3485681E-01)
 number of electron     244.0000003 magnetization       2.8109400
 augmentation part       13.9115280 magnetization       2.7910884

 DIPCOR: dipole corrections for dipol
 direction  3 min pos     1,
 dipolmoment           0.000000     -0.000000      0.000302 electrons x Angstroem
 Tr[quadrupol]     -6669.048144

 energy correction for charged system         0.000000 eV
 dipol+quadrupol energy correction            0.000000 eV
 added-field ion interaction          0.000000 eV  (added to PSCEN)


 Free energy of the ion-electron system (eV)
  ---------------------------------------------------
  alpha Z        PSCENC =       101.91150471
  Ewald energy   TEWEN  =     39531.35123854
  -Hartree energ DENC   =    -47942.37588255
  -exchange      EXHF   =       551.19032499
  -V(xc)+E(xc)   XCENC  =       614.65640060
  PAW double counting   =     26987.93555164   -27034.58732655
  entropy T*S    EENTRO =        -0.04098578
  eigenvalues    EBANDS =     -3204.97265650
  atomic energy  EATOM  =      9784.95219456
  ---------------------------------------------------
  free energy    TOTEN  =      -609.97899854 eV

  energy without entropy =     -609.93801276  energy(sigma->0) =     -609.95850565
  exchange ACFDT corr.  =        -0.03292142  see jH, gK, PRB 81, 115126


--------------------------------------------------------------------------------------------------------




--------------------------------------- Iteration      1(  15)  ---------------------------------------


    POTLOK:  cpu time    1.3784: real time    1.3786
    SETDIJ:  cpu time    2.0851: real time    2.0851
    TRIAL :  cpu time  520.5813: real time  520.6321
    CORREC:  cpu time    0.0022: real time    0.0024
    CHARGE:  cpu time    1.6732: real time    1.6733
    --------------------------------------------
      LOOP:  cpu time  525.7225: real time  525.7739

 eigenvalue-minimisations  :     0
 total energy-change (2. order) :-0.3323678E-01  (-0.3159841E-01)
 number of electron     244.0000003 magnetization       2.9088106
 augmentation part       13.9131690 magnetization       2.8185194

 DIPCOR: dipole corrections for dipol
 direction  3 min pos     1,
 dipolmoment           0.000000     -0.000000      0.000178 electrons x Angstroem
 Tr[quadrupol]     -6669.050816

 energy correction for charged system         0.000000 eV
 dipol+quadrupol energy correction            0.000000 eV
 added-field ion interaction          0.000000 eV  (added to PSCEN)


 Free energy of the ion-electron system (eV)
  ---------------------------------------------------
  alpha Z        PSCENC =       101.91150471
  Ewald energy   TEWEN  =     39531.35123854
  -Hartree energ DENC   =    -47942.49058027
  -exchange      EXHF   =       551.27520951
  -V(xc)+E(xc)   XCENC  =       614.68725529
  PAW double counting   =     26991.75015199   -27038.45161739
  entropy T*S    EENTRO =        -0.04114942
  eigenvalues    EBANDS =     -3204.95660647
  atomic energy  EATOM  =      9784.95219456
  ---------------------------------------------------
  free energy    TOTEN  =      -610.01223532 eV

  energy without entropy =     -609.97108589  energy(sigma->0) =     -609.99166060
  exchange ACFDT corr.  =        -0.03307938  see jH, gK, PRB 81, 115126


--------------------------------------------------------------------------------------------------------




--------------------------------------- Iteration      1(  16)  ---------------------------------------


    POTLOK:  cpu time    1.3771: real time    1.3772
    SETDIJ:  cpu time    2.0849: real time    2.0849
    TRIAL :  cpu time  519.9875: real time  520.0329
    CORREC:  cpu time    0.0022: real time    0.0024
    CHARGE:  cpu time    1.6800: real time    1.6803
    --------------------------------------------
      LOOP:  cpu time  525.1341: real time  525.1822

 eigenvalue-minimisations  :     0
 total energy-change (2. order) :-0.3021209E-01  (-0.2886355E-01)
 number of electron     244.0000003 magnetization       3.0095292
 augmentation part       13.9147123 magnetization       2.8445593

 DIPCOR: dipole corrections for dipol
 direction  3 min pos     1,
 dipolmoment           0.000000     -0.000000      0.000071 electrons x Angstroem
 Tr[quadrupol]     -6669.052337

 energy correction for charged system         0.000000 eV
 dipol+quadrupol energy correction            0.000000 eV
 added-field ion interaction          0.000000 eV  (added to PSCEN)


 Free energy of the ion-electron system (eV)
  ---------------------------------------------------
  alpha Z        PSCENC =       101.91150471
  Ewald energy   TEWEN  =     39531.35123854
  -Hartree energ DENC   =    -47942.55386867
  -exchange      EXHF   =       551.35269855
  -V(xc)+E(xc)   XCENC  =       614.71493791
  PAW double counting   =     26995.62861702   -27042.37529522
  entropy T*S    EENTRO =        -0.04095543
  eigenvalues    EBANDS =     -3204.98332537
  atomic energy  EATOM  =      9784.95219456
  ---------------------------------------------------
  free energy    TOTEN  =      -610.04244741 eV

  energy without entropy =     -610.00149198  energy(sigma->0) =     -610.02196969
  exchange ACFDT corr.  =        -0.03276264  see jH, gK, PRB 81, 115126


--------------------------------------------------------------------------------------------------------




--------------------------------------- Iteration      1(  17)  ---------------------------------------


    POTLOK:  cpu time    1.3722: real time    1.3722
    SETDIJ:  cpu time    2.0836: real time    2.0836
    TRIAL :  cpu time  519.6793: real time  519.7201
    CORREC:  cpu time    0.0022: real time    0.0025
    CHARGE:  cpu time    1.6734: real time    1.6737
    --------------------------------------------
      LOOP:  cpu time  524.8137: real time  524.8550

 eigenvalue-minimisations  :     0
 total energy-change (2. order) :-0.2765631E-01  (-0.2652546E-01)
 number of electron     244.0000003 magnetization       3.1123122
 augmentation part       13.9161653 magnetization       2.8692407

 DIPCOR: dipole corrections for dipol
 direction  3 min pos     1,
 dipolmoment          -0.000000      0.000000     -0.000025 electrons x Angstroem
 Tr[quadrupol]     -6669.052915

 energy correction for charged system         0.000000 eV
 dipol+quadrupol energy correction            0.000000 eV
 added-field ion interaction          0.000000 eV  (added to PSCEN)


 Free energy of the ion-electron system (eV)
  ---------------------------------------------------
  alpha Z        PSCENC =       101.91150471
  Ewald energy   TEWEN  =     39531.35123854
  -Hartree energ DENC   =    -47942.58313785
  -exchange      EXHF   =       551.42385119
  -V(xc)+E(xc)   XCENC  =       614.74000804
  PAW double counting   =     26999.32619420   -27046.11540330
  entropy T*S    EENTRO =        -0.04051656
  eigenvalues    EBANDS =     -3205.03559838
  atomic energy  EATOM  =      9784.95219456
  ---------------------------------------------------
  free energy    TOTEN  =      -610.07010372 eV

  energy without entropy =     -610.02958716  energy(sigma->0) =     -610.04984544
  exchange ACFDT corr.  =        -0.03212428  see jH, gK, PRB 81, 115126


--------------------------------------------------------------------------------------------------------




--------------------------------------- Iteration      1(  18)  ---------------------------------------


    POTLOK:  cpu time    1.3707: real time    1.3707
    SETDIJ:  cpu time    2.0829: real time    2.0830
    TRIAL :  cpu time  519.9291: real time  520.0964
    CORREC:  cpu time    0.0020: real time    0.0023
    CHARGE:  cpu time    1.6768: real time    1.6770
    --------------------------------------------
      LOOP:  cpu time  525.0638: real time  525.2317

 eigenvalue-minimisations  :     0
 total energy-change (2. order) :-0.2548554E-01  (-0.2455960E-01)
 number of electron     244.0000003 magnetization       3.2168548
 augmentation part       13.9175005 magnetization       2.8926841

 DIPCOR: dipole corrections for dipol
 direction  3 min pos     1,
 dipolmoment          -0.000000      0.000000     -0.000111 electrons x Angstroem
 Tr[quadrupol]     -6669.052733

 energy correction for charged system         0.000000 eV
 dipol+quadrupol energy correction            0.000000 eV
 added-field ion interaction          0.000000 eV  (added to PSCEN)


 Free energy of the ion-electron system (eV)
  ---------------------------------------------------
  alpha Z        PSCENC =       101.91150471
  Ewald energy   TEWEN  =     39531.35123854
  -Hartree energ DENC   =    -47942.58618056
  -exchange      EXHF   =       551.48950278
  -V(xc)+E(xc)   XCENC  =       614.76286941
  PAW double counting   =     27002.65838587   -27049.48744347
  entropy T*S    EENTRO =        -0.03983830
  eigenvalues    EBANDS =     -3205.10714452
  atomic energy  EATOM  =      9784.95219456
  ---------------------------------------------------
  free energy    TOTEN  =      -610.09558925 eV

  energy without entropy =     -610.05575096  energy(sigma->0) =     -610.07567011
  exchange ACFDT corr.  =        -0.03130663  see jH, gK, PRB 81, 115126


--------------------------------------------------------------------------------------------------------




--------------------------------------- Iteration      1(  19)  ---------------------------------------


    POTLOK:  cpu time    1.3686: real time    1.3686
    SETDIJ:  cpu time    2.0889: real time    2.0889
    TRIAL :  cpu time  520.4808: real time  520.6451
    CORREC:  cpu time    0.0023: real time    0.0025
    CHARGE:  cpu time    1.6703: real time    1.6745
    --------------------------------------------
      LOOP:  cpu time  525.6132: real time  525.7821

 eigenvalue-minimisations  :     0
 total energy-change (2. order) :-0.2368751E-01  (-0.2295976E-01)
 number of electron     244.0000003 magnetization       3.3227960
 augmentation part       13.9187083 magnetization       2.9150137

 DIPCOR: dipole corrections for dipol
 direction  3 min pos     1,
 dipolmoment          -0.000000      0.000000     -0.000189 electrons x Angstroem
 Tr[quadrupol]     -6669.051959

 energy correction for charged system         0.000000 eV
 dipol+quadrupol energy correction            0.000000 eV
 added-field ion interaction          0.000000 eV  (added to PSCEN)


 Free energy of the ion-electron system (eV)
  ---------------------------------------------------
  alpha Z        PSCENC =       101.91150471
  Ewald energy   TEWEN  =     39531.35123854
  -Hartree energ DENC   =    -47942.56650794
  -exchange      EXHF   =       551.55038011
  -V(xc)+E(xc)   XCENC  =       614.78378683
  PAW double counting   =     27005.54024144   -27052.40595476
  entropy T*S    EENTRO =        -0.03876286
  eigenvalues    EBANDS =     -3205.19632195
  atomic energy  EATOM  =      9784.95219456
  ---------------------------------------------------
  free energy    TOTEN  =      -610.11927676 eV

  energy without entropy =     -610.08051390  energy(sigma->0) =     -610.09989533
  exchange ACFDT corr.  =        -0.03032736  see jH, gK, PRB 81, 115126


--------------------------------------------------------------------------------------------------------




--------------------------------------- Iteration      1(  20)  ---------------------------------------


    POTLOK:  cpu time    1.3682: real time    1.3682
    SETDIJ:  cpu time    2.0896: real time    2.0897
    TRIAL :  cpu time  520.3875: real time  520.5576
    CORREC:  cpu time    0.0023: real time    0.0025
    CHARGE:  cpu time    1.6704: real time    1.6705
    --------------------------------------------
      LOOP:  cpu time  525.5208: real time  525.6912

 eigenvalue-minimisations  :     0
 total energy-change (2. order) :-0.2222595E-01  (-0.2165072E-01)
 number of electron     244.0000003 magnetization       3.4289476
 augmentation part       13.9198267 magnetization       2.9362326

 DIPCOR: dipole corrections for dipol
 direction  3 min pos     1,
 dipolmoment          -0.000000      0.000000     -0.000257 electrons x Angstroem
 Tr[quadrupol]     -6669.050717

 energy correction for charged system         0.000000 eV
 dipol+quadrupol energy correction            0.000000 eV
 added-field ion interaction          0.000000 eV  (added to PSCEN)


 Free energy of the ion-electron system (eV)
  ---------------------------------------------------
  alpha Z        PSCENC =       101.91150471
  Ewald energy   TEWEN  =     39531.35123854
  -Hartree energ DENC   =    -47942.52657395
  -exchange      EXHF   =       551.60711446
  -V(xc)+E(xc)   XCENC  =       614.80293369
  PAW double counting   =     27007.96647871   -27054.86552674
  entropy T*S    EENTRO =        -0.03702744
  eigenvalues    EBANDS =     -3205.30210382
  atomic energy  EATOM  =      9784.95219456
  ---------------------------------------------------
  free energy    TOTEN  =      -610.14150271 eV

  energy without entropy =     -610.10447528  energy(sigma->0) =     -610.12298900
  exchange ACFDT corr.  =        -0.02903085  see jH, gK, PRB 81, 115126


--------------------------------------------------------------------------------------------------------




--------------------------------------- Iteration      1(  21)  ---------------------------------------


    POTLOK:  cpu time    1.3684: real time    1.3685
    SETDIJ:  cpu time    2.0822: real time    2.0824
    TRIAL :  cpu time  519.6134: real time  519.7717
[...]
  augment    48.48187    51.61862    57.69007    -1.05584    -0.15409     0.11903
  Kinetic  3577.66760  3620.50926  4109.77228     1.14001    -0.14649     0.13208
  Fock     -320.73577  -324.00136  -306.98240     0.61269     0.09880    -0.08951
  -------------------------------------------------------------------------------------
  Total     -44.07213   -39.09560    -0.36208    -0.21618     0.00856    -0.01476
  in kB     -22.22663   -19.71684    -0.18261    -0.10902     0.00432    -0.00744
  external pressure =      -14.04 kB  Pullay stress =        0.00 kB


 VOLUME and BASIS-vectors are now :
 -----------------------------------------------------------------------------
  energy-cutoff  :      500.00
  volume of cell :     3176.88
      direct lattice vectors                 reciprocal lattice vectors
    12.726016366  0.003786281  0.000193843     0.078579191 -0.000019513 -0.000013872
     0.003096287 12.468539854 -0.000036320    -0.000023862  0.080201859  0.000025572
     0.003532976 -0.006382772 20.021334036    -0.000000761  0.000000146  0.049946722

  length of vectors
    12.726016931 12.468540238 20.021335365     0.078579195  0.080201867  0.049946722


 FORCES acting on ions:
    Electron-Ion                     Ewald-Force                    Non-Local-Force
 -----------------------------------------------------------------------------------------------
   0.652E+01 -.140E+00 -.190E+00   -.697E+01 0.200E+00 0.191E+00   0.342E+00 -.824E-01 -.666E-03
   0.134E+01 -.174E+01 -.175E+00   -.165E+01 0.185E+01 0.176E+00   0.162E+00 -.976E-01 -.774E-03
   0.115E+02 -.580E+00 -.795E-01   -.117E+02 0.543E+00 0.789E-01   0.262E+00 -.345E-01 0.110E-02
   0.149E+02 0.531E+01 -.213E+00   -.150E+02 -.534E+01 0.212E+00   0.241E+00 0.104E+00 0.521E-04
   0.163E+02 -.153E+01 -.155E+00   -.167E+02 0.157E+01 0.156E+00   0.372E+00 -.506E-01 -.675E-03
   0.413E+01 -.384E+01 -.328E+00   -.443E+01 0.394E+01 0.328E+00   0.235E+00 -.154E+00 -.910E-03
   0.932E+01 -.228E+00 -.238E+00   -.966E+01 0.466E+00 0.238E+00   0.341E+00 -.171E+00 -.236E-03
   0.445E+02 -.404E+01 0.835E-01   -.479E+02 0.452E+01 -.813E-01   0.346E+01 -.440E+00 -.255E-02
   0.194E+02 0.300E+01 0.465E-01   -.197E+02 -.294E+01 -.456E-01   0.543E-01 -.153E+00 -.287E-02
   0.602E+01 0.179E+01 -.314E+00   -.647E+01 -.173E+01 0.313E+00   0.198E+00 -.473E-01 0.572E-03
   0.111E+02 -.894E+00 -.235E+00   -.110E+02 0.106E+01 0.234E+00   0.126E+00 -.141E+00 -.325E-04
   0.669E+02 0.371E+01 0.146E+00   -.700E+02 -.369E+01 -.138E+00   0.359E+01 -.334E-01 -.112E-01
   0.227E+02 -.180E+01 -.153E+00   -.231E+02 0.157E+01 0.151E+00   0.202E+00 0.226E+00 0.284E-02
   0.516E+01 0.302E+01 -.277E+00   -.543E+01 -.325E+01 0.278E+00   0.191E+00 0.203E+00 -.911E-03
   0.104E+02 0.217E+01 -.309E+00   -.105E+02 -.231E+01 0.310E+00   0.163E+00 0.163E+00 -.178E-02
   0.458E+02 0.171E+01 -.207E+00   -.491E+02 -.232E+01 0.202E+00   0.365E+01 0.475E+00 0.428E-02
   0.181E+02 0.370E+00 -.243E+00   -.187E+02 -.255E+00 0.244E+00   0.424E+00 -.345E-03 -.159E-02
   0.170E+01 0.723E+00 -.395E-01   -.191E+01 -.762E+00 0.400E-01   0.139E+00 0.927E-01 0.674E-03
   0.848E+01 -.379E+00 -.142E+00   -.879E+01 0.152E+00 0.142E+00   0.429E+00 0.193E+00 0.121E-02
   0.144E+02 -.749E+01 -.236E+00   -.147E+02 0.766E+01 0.234E+00   0.288E+00 -.203E+00 0.218E-02
   -.995E+01 -.436E+01 -.456E+00   0.100E+02 0.479E+01 0.457E+00   -.171E-01 -.450E+00 -.950E-03
   0.422E+01 0.126E+02 -.279E+00   -.412E+01 -.131E+02 0.282E+00   -.164E+00 0.380E+00 -.194E-02
   0.289E+01 -.329E+01 -.441E+00   -.240E+01 0.337E+01 0.441E+00   -.566E+00 -.161E+00 -.299E-03
   -.925E+01 0.979E+00 -.342E+00   0.930E+01 -.559E+00 0.344E+00   0.645E-01 -.504E+00 -.184E-02
   -.189E+02 0.666E+01 -.611E-01   0.205E+02 -.477E+01 0.567E-01   -.132E+01 -.145E+01 0.196E-02
   -.150E+02 0.321E+02 -.360E-01   0.175E+02 -.348E+02 0.396E-01   -.271E+01 0.289E+01 -.228E-02
   -.270E+01 -.350E+02 -.307E+00   0.177E+01 0.375E+02 0.310E+00   0.117E+01 -.280E+01 -.258E-02
   0.746E+01 -.142E+02 -.485E+00   -.725E+01 0.151E+02 0.486E+00   -.138E+00 -.593E+00 -.118E-02
   -.614E+01 -.385E+02 -.555E+00   0.744E+01 0.413E+02 0.558E+00   -.150E+01 -.300E+01 -.547E-02
   -.922E+01 -.136E+02 -.395E+00   0.920E+01 0.144E+02 0.396E+00   -.120E+00 -.656E+00 -.175E-02
   -.806E+01 -.165E+01 -.820E-01   0.802E+01 0.166E+01 0.815E-01   -.106E-01 -.531E-01 0.122E-02
   -.118E+02 -.178E+01 -.238E+00   0.117E+02 0.219E+01 0.236E+00   -.889E-01 -.348E+00 0.219E-02
   -.379E+01 -.307E+01 -.203E+00   0.394E+01 0.344E+01 0.203E+00   -.868E-01 -.440E+00 -.613E-03
   0.333E+01 -.170E+01 -.174E+00   -.341E+01 0.184E+01 0.174E+00   0.198E+00 -.168E+00 -.332E-03
   -.264E+01 -.225E+01 -.271E+00   0.231E+01 0.244E+01 0.270E+00   0.319E+00 -.121E+00 0.576E-03
   -.101E+02 -.325E+01 0.716E-01   0.844E+01 0.349E+01 -.718E-01   0.158E+01 -.231E+00 -.245E-02
   -.566E+01 -.543E+01 -.220E+00   0.512E+01 0.622E+01 0.220E+00   0.525E+00 -.756E+00 -.122E-02
   0.211E+01 -.204E+01 -.367E+00   -.225E+01 0.207E+01 0.367E+00   0.181E+00 -.148E+00 -.853E-03
   -.501E+01 -.353E+00 -.318E+00   0.431E+01 0.450E+00 0.318E+00   0.251E+00 -.112E+00 -.210E-02
   -.194E+02 0.312E+01 0.349E+00   0.187E+02 -.333E+01 -.350E+00   -.214E+00 0.217E+00 0.734E-03
   -.486E+01 0.354E+01 0.142E+00   0.454E+01 -.439E+01 -.148E+00   0.686E+00 0.553E+00 0.746E-02
   -.856E+00 0.318E+00 -.342E+00   0.999E+00 -.219E+00 0.340E+00   0.106E+00 0.491E-01 0.251E-03
   -.338E+01 0.393E+01 -.304E+00   0.313E+01 -.405E+01 0.303E+00   0.160E+00 0.917E-01 -.102E-02
   -.413E+02 0.864E+01 -.182E+00   0.448E+02 -.947E+01 0.180E+00   -.345E+01 0.524E+00 0.156E-02
   -.114E+02 0.232E+01 -.118E+00   0.115E+02 -.257E+01 0.121E+00   0.319E-01 0.596E+00 -.284E-02
   -.102E+01 0.282E+01 -.272E+00   0.102E+01 -.308E+01 0.272E+00   0.615E-01 0.228E+00 -.405E-03
   -.502E+01 0.547E+00 -.146E+00   0.518E+01 -.756E+00 0.145E+00   -.253E+00 0.206E+00 0.856E-03
   -.153E+02 -.729E+01 -.242E+00   0.157E+02 0.758E+01 0.240E+00   -.380E+00 -.276E+00 0.994E-03
   -.153E+02 0.236E+01 -.234E+00   0.158E+02 -.234E+01 0.235E+00   -.304E+00 0.430E-01 -.104E-02
   0.175E+01 0.521E+00 -.425E-01   -.185E+01 -.543E+00 0.433E-01   0.138E+00 0.644E-01 0.388E-03
   -.173E+02 -.215E+02 0.415E+00   0.139E+02 0.277E+02 -.432E+00   0.372E+01 -.654E+01 0.178E-01
   -.572E+02 0.490E+01 0.835E+00   0.532E+02 -.473E+01 -.845E+00   0.518E+01 -.191E+00 -.632E-02
   0.291E+01 -.241E+02 0.215E+00   0.789E+01 0.410E+02 -.230E+00   -.103E+02 -.162E+02 0.134E-01
   0.513E+02 0.445E+01 0.205E+01   -.387E+02 -.503E+01 -.214E+01   -.128E+02 0.410E+00 0.103E+00
   0.151E+02 0.201E+02 -.208E+00   -.556E+01 -.371E+02 0.161E+00   -.955E+01 0.165E+02 0.438E-01
   -.216E+02 0.342E+02 0.449E-01   0.123E+02 -.512E+02 -.876E-01   0.927E+01 0.165E+02 0.338E-01
   -.440E+02 0.926E+02 0.525E+01   0.456E+02 -.990E+02 -.517E+01   -.260E+01 0.386E+01 -.804E-01
   -.448E+02 -.609E+02 0.102E+01   0.450E+02 0.636E+02 -.107E+01   -.361E+00 -.306E+00 0.632E-01
 -----------------------------------------------------------------------------------------------
   0.911E+01 -.830E+01 -.184E+00   -.419E-12 0.284E-13 -.511E-14   -.843E+01 0.742E+01 0.164E+00
 
 
 POSITION                                       TOTAL-FORCE (eV/Angst)
 -----------------------------------------------------------------------------------
      2.81302     12.46015     10.01099        -0.095036     -0.025863      0.000097
      0.70307      1.24959     10.01100        -0.150633      0.008363     -0.000228
      1.39735     12.46124     10.01081         0.088500     -0.073768      0.000538
      3.51673      1.23014     10.01072         0.149755      0.079316     -0.000863
      2.84641      2.48609     10.01020        -0.012002     -0.016964     -0.000140
      0.71594      3.74313     10.01108        -0.057832     -0.066647     -0.000702
      1.41807      2.49619     10.01089         0.025113      0.059462     -0.000707
      3.60822      3.71231     10.00857         0.246985      0.009575     -0.000499
      2.88868      4.97065     10.00872        -0.234549     -0.093216     -0.002160
      0.72888      6.23506     10.01094        -0.243261      0.006428     -0.000818
      1.45267      4.98295     10.01043         0.186020      0.012651     -0.000844
      3.59833      6.23923     10.00726         0.804792     -0.013153     -0.003670
      2.88642      7.49732     10.00959        -0.163259      0.002035      0.001819
      0.71304      8.71747     10.01112        -0.060688     -0.019219     -0.000562
      1.45011      7.48304     10.01081         0.097157      0.039504     -0.000908
      3.61243      8.74598     10.01011         0.543494     -0.102184     -0.000531
      2.85200      9.97167     10.01093        -0.193098      0.121569     -0.000135
      0.70336     11.20644     10.01072        -0.071229      0.060029      0.001242
      1.41978      9.96174     10.01089         0.137144     -0.025219      0.000396
      3.52643     11.22370     10.01119         0.070505     -0.048226      0.000706
      7.06355     12.46201     10.01162         0.057598     -0.047918     -0.000728
      4.93181      1.21723     10.01065        -0.068846     -0.019132      0.000407
      5.65646     12.45998     10.01157        -0.106208     -0.092943     -0.000379
      7.76476      1.23270     10.01089         0.121934     -0.106537     -0.000000
      7.05452      2.45853     10.00905         0.237872      0.371922     -0.002445
      5.62736      2.43536     10.00897        -0.370548      0.393046      0.001137
      7.07310      9.99822     10.01072         0.299078     -0.469049     -0.000283
      4.94673     11.23153     10.01169         0.057926      0.214795     -0.000466
      5.64523     10.00871     10.01120        -0.287622     -0.418961     -0.003506
      7.77097     11.22662     10.01149        -0.140778      0.108122     -0.000500
     11.31177     12.46661     10.01100        -0.055677     -0.042810      0.000782
      9.18396      1.24644     10.01097        -0.158777      0.048243     -0.000025
      9.89170      0.00094     10.01121         0.065342     -0.098221      0.000175
     12.00588      1.25416     10.01121         0.136435     -0.030624      0.000275
     11.29690      2.50255     10.01121        -0.003601      0.070217     -0.000323
      9.12191      3.74104     10.00879         0.018761     -0.002503     -0.002798
      9.86481      2.50281     10.01056         0.009965     -0.006881     -0.001204
     12.01351      3.74685     10.01139         0.051455     -0.129269     -0.001188
     11.29274      4.99209     10.01084        -0.442227     -0.020955     -0.002782
      9.14348      6.22997     10.00759        -0.913602      0.023050      0.000368
      9.86557      4.98432     10.00885         0.401887     -0.269272      0.002013
     12.01216      6.24040     10.01122         0.254896      0.149271     -0.001329
     11.27826      7.48447     10.01102        -0.078759     -0.022616     -0.001507
      9.10185      8.73826     10.01013        -0.162958     -0.272736     -0.000428
      9.83765      7.48793     10.00977         0.142072      0.364662     -0.000344
     12.00725      8.72034     10.01130         0.070183     -0.016042     -0.000620
     11.29304      9.96139     10.01106        -0.101554      0.005907      0.000400
      9.18966     11.22555     10.01126         0.038263      0.002679     -0.000610
      9.85955      9.96690     10.01101         0.174345      0.076842      0.000055
     12.00429     11.20958     10.01090         0.049356      0.047147      0.001162
      7.69322      3.73556     10.00687         0.459284     -0.688014      0.002301
      7.74685      6.18533     10.00482         1.443742     -0.036611     -0.017258
      4.99050      3.65525     10.00742        -0.337377     -0.736456     -0.000482
      4.92753      6.24166     10.00307        -1.287185     -0.130659      0.014315
      4.99981      8.79009     10.00960        -0.799626      0.918315      0.000137
      7.70746      8.76111     10.00920         0.771689      1.003855     -0.006062
      6.32155      5.11653     10.00016        -0.456019     -1.091692      0.009317
      6.32417      7.36354     10.00583        -0.158599      1.037355      0.020391
 -----------------------------------------------------------------------------------
    total drift:                               -0.004885      0.005942      0.001738


--------------------------------------------------------------------------------------------------------



  FREE ENERGIE OF THE ION-ELECTRON SYSTEM (eV)
  ---------------------------------------------------
  free  energy   TOTEN  =      -610.30461687 eV

  energy  without entropy=     -610.30434402  energy(sigma->0) =     -610.30448045
 


--------------------------------------------------------------------------------------------------------


    POTLOK:  cpu time    3.4382: real time    3.4383


--------------------------------------------------------------------------------------------------------


 stress matrix after NEB project (eV)
    -44.07213     -0.21614     -0.01476
     -0.21618    -39.09560      0.01038
     -0.01308      0.00856     -0.36208
  FORCES: max atom, RMS     1.444309    0.509072
  FORCE total and by dimension    3.876980    1.443742
  Stress total and by dimension   58.915559   44.072128
 writing wavefunctions
     LOOP+:  cpu time44218.8809: real time44226.7856
    4ORBIT:  cpu time    0.0000: real time    0.0000
 


 total charge     
 
# of ion       s       p       d       tot
------------------------------------------
    1        0.867   1.788   0.000   2.655
    2        0.864   1.765   0.000   2.629
    3        0.867   1.765   0.000   2.633
    4        0.872   1.774   0.000   2.646
    5        0.864   1.770   0.000   2.634
    6        0.862   1.761   0.000   2.623
    7        0.865   1.756   0.000   2.621
    8        0.853   1.707   0.000   2.561
    9        0.854   1.752   0.000   2.607
   10        0.856   1.746   0.000   2.601
   11        0.861   1.732   0.000   2.593
   12        0.864   1.734   0.000   2.598
   13        0.856   1.761   0.000   2.618
   14        0.862   1.761   0.000   2.624
   15        0.861   1.741   0.000   2.602
   16        0.854   1.704   0.000   2.558
   17        0.864   1.770   0.000   2.633
   18        0.864   1.765   0.000   2.628
   19        0.864   1.755   0.000   2.619
   20        0.871   1.768   0.000   2.640
   21        0.869   1.793   0.000   2.663
   22        0.874   1.808   0.000   2.682
   23        0.870   1.799   0.000   2.669
   24        0.872   1.781   0.000   2.652
   25        0.874   1.780   0.000   2.654
   26        0.875   1.754   0.000   2.629
   27        0.866   1.750   0.000   2.616
   28        0.872   1.801   0.000   2.673
   29        0.868   1.763   0.000   2.631
   30        0.871   1.793   0.000   2.665
   31        0.865   1.768   0.000   2.633
   32        0.867   1.774   0.000   2.641
   33        0.867   1.774   0.000   2.640
   34        0.865   1.760   0.000   2.625
   35        0.863   1.756   0.000   2.620
   36        0.860   1.743   0.000   2.603
   37        0.865   1.750   0.000   2.615
   38        0.864   1.753   0.000   2.617
   39        0.862   1.754   0.000   2.616
   40        0.865   1.770   0.000   2.635
   41        0.865   1.739   0.000   2.605
   42        0.859   1.738   0.000   2.597
   43        0.859   1.745   0.000   2.604
   44        0.851   1.701   0.000   2.552
   45        0.857   1.746   0.000   2.603
   46        0.864   1.757   0.000   2.621
   47        0.862   1.760   0.000   2.622
   48        0.869   1.771   0.000   2.641
   49        0.864   1.760   0.000   2.624
   50        0.865   1.758   0.000   2.623
   51        0.869   1.646   0.000   2.515
   52        0.910   1.567   0.000   2.478
   53        1.232   2.656   0.000   3.889
   54        1.257   2.618   0.000   3.875
   55        1.230   2.659   0.000   3.889
   56        1.226   2.643   0.000   3.869
   57        0.530   0.822   6.380   7.733
   58        0.515   0.743   6.358   7.617
--------------------------------------------------
tot         50.985 103.331  12.738 167.054
 


 magnetization (x)
 
# of ion       s       p       d       tot
------------------------------------------
    1        0.000   0.005   0.000   0.005
    2        0.000   0.007   0.000   0.007
    3        0.000   0.003   0.000   0.003
    4       -0.000  -0.000   0.000  -0.000
    5       -0.000   0.002   0.000   0.002
    6        0.000   0.008   0.000   0.008
    7       -0.000  -0.001   0.000  -0.001
    8        0.000   0.001   0.000   0.001
    9       -0.001  -0.000   0.000  -0.001
   10        0.001   0.009   0.000   0.010
   11       -0.001  -0.006   0.000  -0.006
   12        0.001   0.008   0.000   0.008
   13       -0.001   0.003   0.000   0.002
   14        0.001   0.011   0.000   0.012
   15       -0.000   0.001   0.000   0.000
   16        0.000   0.011   0.000   0.011
   17       -0.000   0.003   0.000   0.003
   18        0.000   0.006   0.000   0.006
   19       -0.000  -0.003   0.000  -0.004
   20        0.000   0.006   0.000   0.006
   21        0.000   0.008   0.000   0.009
   22       -0.000   0.002   0.000   0.002
   23        0.000   0.006   0.000   0.006
   24       -0.001  -0.009   0.000  -0.010
   25       -0.000   0.010   0.000   0.010
   26       -0.001  -0.008   0.000  -0.009
   27        0.000   0.014   0.000   0.014
   28       -0.001  -0.001   0.000  -0.002
   29        0.001   0.022   0.000   0.023
   30       -0.001  -0.006   0.000  -0.007
   31        0.001   0.013   0.000   0.014
   32        0.001   0.007   0.000   0.008
   33       -0.000  -0.002   0.000  -0.002
   34       -0.001  -0.007   0.000  -0.007
   35        0.001   0.016   0.000   0.017
   36        0.001   0.013   0.000   0.014
   37       -0.001  -0.008   0.000  -0.009
   38       -0.001  -0.005   0.000  -0.005
   39        0.002   0.021   0.000   0.022
   40        0.004   0.051   0.000   0.055
   41       -0.004  -0.039   0.000  -0.043
   42       -0.001  -0.017   0.000  -0.018
   43        0.001   0.010   0.000   0.010
   44        0.002   0.037   0.000   0.039
   45       -0.002  -0.008   0.000  -0.010
   46        0.000   0.005   0.000   0.005
   47        0.001   0.008   0.000   0.009
   48        0.002   0.024   0.000   0.026
   49       -0.001  -0.011   0.000  -0.012
   50       -0.000  -0.004   0.000  -0.004
   51       -0.011  -0.046   0.000  -0.057
   52       -0.023  -0.200   0.000  -0.223
   53       -0.005  -0.011   0.000  -0.016
   54       -0.011  -0.133   0.000  -0.143
   55       -0.005  -0.006   0.000  -0.011
   56       -0.003   0.024   0.000   0.021
   57        0.042   0.002   1.998   2.043
   58        0.002   0.005   1.928   1.935
--------------------------------------------------
tot         -0.012  -0.147   3.926   3.767
 

 total amount of memory used by VASP MPI-rank0   175353. kBytes
=======================================================================

   base      :      30000. kBytes
   nonl-proj :       4582. kBytes
   fftplans  :      14250. kBytes
   grid      :      34043. kBytes
   one-center:         62. kBytes
   HF        :         23. kBytes
   nonlr-proj:      15029. kBytes
   wavefun   :      77364. kBytes
 
  
  
 General timing and accounting informations for this job:
 ========================================================
  
                  Total CPU time used (sec):    44304.508
                            User time (sec):    44242.340
                          System time (sec):       62.166
                         Elapsed time (sec):    44314.269
  
                   Maximum memory used (kb):      428036.
                   Average memory used (kb):           0.
  
                          Minor page faults:       359790
                          Major page faults:            0
                 Voluntary context switches:         1134
