 vasp.5.4.4.18Apr17-6-g9f103f2a35 (build Feb 25 2019 10:51:38) complex          
  
 executed on             LinuxIFC date 2021.03.10  03:44:09
 running on   80 total cores
 distrk:  each k-point on   40 cores,    2 groups
 distr:  one band on NCORES_PER_BAND=  40 cores,    1 groups


--------------------------------------------------------------------------------------------------------


 INCAR:
 POTCAR:    PAW_PBE C 08Apr2002                   
 POTCAR:    PAW_PBE N 08Apr2002                   
 POTCAR:    PAW_PBE Fe 06Sep2000                  

 ----------------------------------------------------------------------------- 
|                                                                             |
|           W    W    AA    RRRRR   N    N  II  N    N   GGGG   !!!           |
|           W    W   A  A   R    R  NN   N  II  NN   N  G    G  !!!           |
|           W    W  A    A  R    R  N N  N  II  N N  N  G       !!!           |
|           W WW W  AAAAAA  RRRRR   N  N N  II  N  N N  G  GGG   !            |
|           WW  WW  A    A  R   R   N   NN  II  N   NN  G    G                |
|           W    W  A    A  R    R  N    N  II  N    N   GGGG   !!!           |
|                                                                             |
|      For optimal performance we recommend to set                            |
|        NCORE= 4 - approx SQRT( number of cores)                             |
|      NCORE specifies how many cores store one orbital (NPAR=cpu/NCORE).     |
|      This setting can  greatly improve the performance of VASP for DFT.     |
|      The default,   NCORE=1            might be grossly inefficient         |
|      on modern multi-core architectures or massively parallel machines.     |
|      Do your own testing !!!!                                               |
|      Unfortunately you need to use the default for GW and RPA calculations. |
|      (for HF NCORE is supported but not extensively tested yet)             |
|                                                                             |
 ----------------------------------------------------------------------------- 


 ----------------------------------------------------------------------------- 
|                                                                             |
|           W    W    AA    RRRRR   N    N  II  N    N   GGGG   !!!           |
|           W    W   A  A   R    R  NN   N  II  NN   N  G    G  !!!           |
|           W    W  A    A  R    R  N N  N  II  N N  N  G       !!!           |
|           W WW W  AAAAAA  RRRRR   N  N N  II  N  N N  G  GGG   !            |
|           WW  WW  A    A  R   R   N   NN  II  N   NN  G    G                |
|           W    W  A    A  R    R  N    N  II  N    N   GGGG   !!!           |
|                                                                             |
|      You have enabled k-point parallelism (KPAR>1).                         |
|      This developmental code was originally  written by Paul Kent at ORNL,  |
|      and carefully double checked in Vienna.                                |
|      GW as well as linear response parallelism added by Martijn Marsman     |
|      and Georg Kresse.                                                      |
|      Carefully verify results versus KPAR=1.                                |
|      Report problems to Paul Kent and Vienna.                               |
|                                                                             |
 ----------------------------------------------------------------------------- 

 POTCAR:    PAW_PBE C 08Apr2002                   
   VRHFIN =C: s2p2                                                              
   LEXCH  = PE                                                                  
   EATOM  =   147.1560 eV,   10.8157 Ry                                         
                                                                                
   TITEL  = PAW_PBE C 08Apr2002                                                 
   LULTRA =        F    use ultrasoft PP ?                                      
   IUNSCR =        1    unscreen: 0-lin 1-nonlin 2-no                           
   RPACOR =    1.200    partial core radius                                     
   POMASS =   12.011; ZVAL   =    4.000    mass and valenz                      
   RCORE  =    1.500    outmost cutoff radius                                   
   RWIGS  =    1.630; RWIGS  =    0.863    wigner-seitz radius (au A)           
   ENMAX  =  400.000; ENMIN  =  300.000 eV                                      
   ICORE  =        2    local potential                                         
   LCOR   =        T    correct aug charges                                     
   LPAW   =        T    paw PP                                                  
   EAUG   =  644.873                                                            
   DEXC   =    0.000                                                            
   RMAX   =    1.529    core radius for proj-oper                               
   RAUG   =    1.300    factor for augmentation sphere                          
   RDEP   =    1.501    radius for radial grids                                 
   RDEPT  =    1.300    core radius for aug-charge                              
                                                                                
   Atomic configuration                                                         
    4 entries                                                                   
     n  l   j            E        occ.                                          
     1  0  0.50      -273.3789   2.0000                                         
     2  0  0.50       -13.7508   2.0000                                         
     2  1  0.50        -5.2854   2.0000                                         
     3  2  1.50        -5.4423   0.0000                                         
   Description                                                                  
     l       E           TYP  RCUT    TYP  RCUT                                 
     0    -13.7508458     23  1.200                                             
     0     -8.2022199     23  1.200                                             
     1     -5.2854383     23  1.500                                             
     1     34.0145650     23  1.500                                             
     2     -5.4423304      7  1.500                                             
  local pseudopotential read in
  partial core-charges read in
  partial kinetic energy density read in
  atomic valenz-charges read in
  non local Contribution for L=           0  read in
    real space projection operators read in
  non local Contribution for L=           0  read in
    real space projection operators read in
  non local Contribution for L=           1  read in
    real space projection operators read in
  non local Contribution for L=           1  read in
    real space projection operators read in
    PAW grid and wavefunctions read in
 
   number of l-projection  operators is LMAX  =           4
   number of lm-projection operators is LMMAX =           8
 
 POTCAR:    PAW_PBE N 08Apr2002                   
   VRHFIN =N: s2p3                                                              
   LEXCH  = PE                                                                  
   EATOM  =   264.5486 eV,   19.4438 Ry                                         
                                                                                
   TITEL  = PAW_PBE N 08Apr2002                                                 
   LULTRA =        F    use ultrasoft PP ?                                      
   IUNSCR =        1    unscreen: 0-lin 1-nonlin 2-no                           
   RPACOR =    1.200    partial core radius                                     
   POMASS =   14.001; ZVAL   =    5.000    mass and valenz                      
   RCORE  =    1.500    outmost cutoff radius                                   
   RWIGS  =    1.400; RWIGS  =    0.741    wigner-seitz radius (au A)           
   ENMAX  =  400.000; ENMIN  =  300.000 eV                                      
   ICORE  =        2    local potential                                         
   LCOR   =        T    correct aug charges                                     
   LPAW   =        T    paw PP                                                  
   EAUG   =  627.112                                                            
   DEXC   =    0.000                                                            
   RMAX   =    1.529    core radius for proj-oper                               
   RAUG   =    1.300    factor for augmentation sphere                          
   RDEP   =    1.514    radius for radial grids                                 
   RDEPT  =    1.338    core radius for aug-charge                              
                                                                                
   Atomic configuration                                                         
    4 entries                                                                   
     n  l   j            E        occ.                                          
     1  0  0.50      -384.7179   2.0000                                         
     2  0  0.50       -18.5828   2.0000                                         
     2  1  0.50        -7.0898   3.0000                                         
     3  2  1.50        -6.8029   0.0000                                         
   Description                                                                  
     l       E           TYP  RCUT    TYP  RCUT                                 
     0    -18.5828119     23  1.200                                             
     0    -13.5018863     23  1.200                                             
     1     -7.0897853     23  1.500                                             
     1      9.5240782     23  1.500                                             
     2     -6.8029130      7  1.500                                             
  local pseudopotential read in
  partial core-charges read in
  partial kinetic energy density read in
  atomic valenz-charges read in
  non local Contribution for L=           0  read in
    real space projection operators read in
  non local Contribution for L=           0  read in
    real space projection operators read in
  non local Contribution for L=           1  read in
    real space projection operators read in
  non local Contribution for L=           1  read in
    real space projection operators read in
    PAW grid and wavefunctions read in
 
   number of l-projection  operators is LMAX  =           4
   number of lm-projection operators is LMMAX =           8
 
 POTCAR:    PAW_PBE Fe 06Sep2000                  
   VRHFIN =Fe:  d7 s1                                                           
   LEXCH  = PE                                                                  
   EATOM  =   594.3153 eV,   43.6809 Ry                                         
                                                                                
   TITEL  = PAW_PBE Fe 06Sep2000                                                
   LULTRA =        F    use ultrasoft PP ?                                      
   IUNSCR =        1    unscreen: 0-lin 1-nonlin 2-no                           
   RPACOR =    2.000    partial core radius                                     
   POMASS =   55.847; ZVAL   =    8.000    mass and valenz                      
   RCORE  =    2.300    outmost cutoff radius                                   
   RWIGS  =    2.460; RWIGS  =    1.302    wigner-seitz radius (au A)           
   ENMAX  =  267.882; ENMIN  =  200.911 eV                                      
   RCLOC  =    1.701    cutoff for local pot                                    
   LCOR   =        T    correct aug charges                                     
   LPAW   =        T    paw PP                                                  
   EAUG   =  511.368                                                            
   DEXC   =    0.000                                                            
   RMAX   =    2.356    core radius for proj-oper                               
   RAUG   =    1.300    factor for augmentation sphere                          
   RDEP   =    2.442    radius for radial grids                                 
   RDEPT  =    1.890    core radius for aug-charge                              
                                                                                
   Atomic configuration                                                         
    9 entries                                                                   
     n  l   j            E        occ.                                          
     1  0  0.50     -6993.8440   2.0000                                         
     2  0  0.50      -814.6047   2.0000                                         
     2  1  1.50      -693.3689   6.0000                                         
     3  0  0.50       -89.4732   2.0000                                         
     3  1  1.50       -55.6373   6.0000                                         
     3  2  2.50        -3.8151   7.0000                                         
     4  0  0.50        -4.2551   1.0000                                         
     4  1  1.50        -3.4015   0.0000                                         
     4  3  2.50        -1.3606   0.0000                                         
   Description                                                                  
     l       E           TYP  RCUT    TYP  RCUT                                 
     2     -3.8151135     23  2.300                                             
     2     -5.1756961     23  2.300                                             
     0     -4.2550963     23  2.300                                             
     0      7.2035603     23  2.300                                             
     1     -2.7211652     23  2.300                                             
     1     18.4316424     23  2.300                                             
  local pseudopotential read in
  partial core-charges read in
  partial kinetic energy density read in
  atomic valenz-charges read in
  non local Contribution for L=           2  read in
    real space projection operators read in
  non local Contribution for L=           2  read in
    real space projection operators read in
  non local Contribution for L=           0  read in
    real space projection operators read in
  non local Contribution for L=           0  read in
    real space projection operators read in
  non local Contribution for L=           1  read in
    real space projection operators read in
  non local Contribution for L=           1  read in
    real space projection operators read in
    PAW grid and wavefunctions read in
 
   number of l-projection  operators is LMAX  =           6
   number of lm-projection operators is LMMAX =          18
 

 ----------------------------------------------------------------------------- 
|                                                                             |
|  ADVICE TO THIS USER RUNNING 'VASP/VAMP'   (HEAR YOUR MASTER'S VOICE ...):  |
|                                                                             |
|      You have a (more or less) 'large supercell' and for larger cells       |
|      it might be more efficient to use real space projection opertators     |
|      So try LREAL= Auto  in the INCAR   file.                               |
|      Mind:          For very  accurate calculation you might also keep the  |
|      reciprocal projection scheme          (i.e. LREAL=.FALSE.)             |
|                                                                             |
 ----------------------------------------------------------------------------- 

  PAW_PBE C 08Apr2002                   :
 energy of atom  1       EATOM= -147.1560
 kinetic energy error for atom=    0.0076 (will be added to EATOM!!)
  PAW_PBE N 08Apr2002                   :
 energy of atom  2       EATOM= -264.5486
 kinetic energy error for atom=    0.0138 (will be added to EATOM!!)
  PAW_PBE Fe 06Sep2000                  :
 energy of atom  3       EATOM= -594.3153
 kinetic energy error for atom=    0.0026 (will be added to EATOM!!)
 
 
 POSCAR:  C  N Fe                                
  positions in cartesian coordinates
  No initial velocities read in
 exchange correlation table for  LEXCH =        8
   RHO(1)=    0.500       N(1)  =     2000
   RHO(2)=  100.500       N(2)  =     4000

 VTST: version 3.2, (02/03/18)

 CHAIN: initializing optimizer
 
 OPT: Using VASP Conjugate-Gradient optimizer
 CHAIN: Read ICHAIN            0
 
 POSCAR:  C  N Fe                                
  positions in cartesian coordinates
  No initial velocities read in
 


--------------------------------------------------------------------------------------------------------


 ion  position               nearest neighbor table
   1  0.223  0.003  0.497-  19 1.43   4 1.43   3 1.43
   2  0.058  0.102  0.495-   3 1.42  38 1.44   7 1.44
   3  0.112  0.002  0.496-   2 1.42  17 1.43   1 1.43
   4  0.280  0.104  0.498-  21 1.43   1 1.43   5 1.44
   5  0.227  0.206  0.498-   7 1.44   4 1.44   8 1.45
   6  0.059  0.302  0.496-   7 1.42  11 1.43  42 1.43
   7  0.115  0.203  0.496-   6 1.42   2 1.44   5 1.44
   8  0.284  0.309  0.501-  25 1.45   5 1.45   9 1.45
   9  0.226  0.409  0.501-  55 1.39  11 1.44   8 1.45
  10  0.056  0.501  0.497-  14 1.42  46 1.42  11 1.43
  11  0.115  0.403  0.497-   6 1.43  10 1.43   9 1.44
  12  0.218  0.604  0.500-  55 1.38  14 1.40  15 1.42
  13  0.053  0.702  0.496-  18 1.41  50 1.42  14 1.42
  14  0.109  0.603  0.497-  12 1.40  10 1.42  13 1.42
  15  0.273  0.705  0.501-  58 1.38  16 1.41  12 1.42
  16  0.219  0.803  0.498-  15 1.41  19 1.42  18 1.42
  17  0.054  0.902  0.495-  18 1.42   3 1.43  54 1.43
  18  0.109  0.802  0.496-  13 1.41  17 1.42  16 1.42
  19  0.277  0.902  0.499-  16 1.42  32 1.43   1 1.43
  20  0.555  0.995  0.500-  22 1.43  23 1.43  34 1.44
  21  0.391  0.101  0.499-   4 1.43  26 1.43  22 1.45
  22  0.445  0.998  0.500-  20 1.43  32 1.43  21 1.45
  23  0.612  0.096  0.499-  24 1.43  20 1.43  36 1.43
  24  0.558  0.197  0.499-  27 1.42  26 1.43  23 1.43
  25  0.397  0.305  0.502-  56 1.39   8 1.45  26 1.45
  26  0.448  0.201  0.500-  24 1.43  21 1.43  25 1.45
  27  0.616  0.296  0.498-  28 1.41  24 1.42  40 1.42
  28  0.562  0.395  0.501-  56 1.38  27 1.41  29 1.42
  29  0.618  0.495  0.501-  57 1.38  44 1.40  28 1.42
  30  0.609  0.690  0.502-  57 1.39  48 1.44  31 1.45
  31  0.551  0.791  0.503-  33 1.45  34 1.45  30 1.45
  32  0.388  0.898  0.500-  19 1.43  22 1.43  33 1.45
  33  0.439  0.794  0.503-  58 1.39  31 1.45  32 1.45
  34  0.608  0.893  0.501-  52 1.44  20 1.44  31 1.45
  35  0.889  0.999  0.495-  54 1.42  38 1.43  37 1.44
  36  0.723  0.097  0.497-  37 1.42  41 1.43  23 1.43
  37  0.777  0.997  0.497-  36 1.42  52 1.44  35 1.44
  38  0.946  0.099  0.495-  39 1.42  35 1.43   2 1.44
  39  0.892  0.199  0.495-  38 1.42  42 1.43  41 1.43
  40  0.726  0.296  0.497-  45 1.41  41 1.42  27 1.42
  41  0.781  0.197  0.496-  40 1.42  36 1.43  39 1.43
  42  0.948  0.299  0.495-  43 1.42  39 1.43   6 1.43
  43  0.892  0.398  0.496-  46 1.42  45 1.42  42 1.42
  44  0.726  0.496  0.498-  29 1.40  49 1.42  45 1.42
  45  0.782  0.396  0.496-  40 1.41  43 1.42  44 1.42
  46  0.946  0.500  0.496-  43 1.42  10 1.42  47 1.43
  47  0.889  0.599  0.496-  50 1.42  49 1.42  46 1.43
  48  0.721  0.695  0.499-  53 1.43  49 1.43  30 1.44
  49  0.779  0.597  0.498-  44 1.42  47 1.42  48 1.43
  50  0.943  0.700  0.496-  47 1.42  13 1.42  51 1.42
  51  0.887  0.799  0.496-  50 1.42  54 1.43  53 1.43
  52  0.720  0.896  0.498-  53 1.42  37 1.44  34 1.44
  53  0.776  0.797  0.498-  52 1.42  48 1.43  51 1.43
  54  0.943  0.900  0.495-  35 1.42  51 1.43  17 1.43
  55  0.276  0.510  0.504-  12 1.38   9 1.39  59 1.90
  56  0.456  0.401  0.504-  28 1.38  25 1.39  59 1.92
  57  0.560  0.589  0.505-  29 1.38  30 1.39  59 1.90
  58  0.380  0.699  0.505-  15 1.38  33 1.39  59 1.92
  59  0.418  0.551  0.515-  55 1.90  57 1.90  56 1.92  58 1.92  60 2.16
  60  0.421  0.558  0.623-  59 2.16
 
  LATTYP: Found a triclinic cell.
 ALAT       =    12.2966000000
 B/A-ratio  =     1.4377908688
 C/A-ratio  =     2.2141298814
 COS(alpha) =     0.0101942360
 COS(beta)  =     0.5001088667
 COS(gamma) =     0.6846169898
  
  Lattice vectors:
  
 A1 = (  -0.1837689738,  12.2952267374,   0.0000000000)
 A2 = (  12.7046310262,  12.2952267374,   0.0000000000)
 A3 = ( -12.6101482908,  13.4291436692, -20.0477432967)


Analysis of symmetry for initial positions (statically):
=====================================================================
 Subroutine PRICEL returns:
 Original cell was already a primitive cell.
 

 Routine SETGRP: Setting up the symmetry group for a 
 triclinic supercell.


 Subroutine GETGRP returns: Found  1 space group operations
 (whereof  1 operations were pure point group operations)
 out of a pool of  2 trial point group operations.


The static configuration has the point symmetry C_1 .


Analysis of symmetry for dynamics (positions and initial velocities):
=====================================================================
 Subroutine PRICEL returns:
 Original cell was already a primitive cell.
 

 Routine SETGRP: Setting up the symmetry group for a 
 triclinic supercell.


 Subroutine GETGRP returns: Found  1 space group operations
 (whereof  1 operations were pure point group operations)
 out of a pool of  2 trial point group operations.


The dynamic configuration has the point symmetry C_1 .


Analysis of structural, dynamic, and magnetic symmetry:
=====================================================================
 Subroutine PRICEL returns:
 Original cell was already a primitive cell.
 

 Routine SETGRP: Setting up the symmetry group for a 
 triclinic supercell.


 Subroutine GETGRP returns: Found  1 space group operations
 (whereof  1 operations were pure point group operations)
 out of a pool of  2 trial point group operations.


The magnetic configuration has the point symmetry C_1 .


 Subroutine INISYM returns: Found  1 space group operations
 (whereof  1 operations are pure point group operations),
 and found     1 'primitive' translations

 
 
 KPOINTS: KPOINTS created by Atomic Simulation Env

Automatic generation of k-mesh.
Space group operators:
 irot       det(A)        alpha          n_x          n_y          n_z        tau_x        tau_y        tau_z
    1     1.000000     0.000000     1.000000     0.000000     0.000000     0.000000     0.000000     0.000000
 
 Subroutine IBZKPT returns following result:
 ===========================================
 
 Found      2 irreducible k-points:
 
 Following reciprocal coordinates:
            Coordinates               Weight
  0.250000  0.250000  0.000000      2.000000
 -0.250000  0.250000 -0.000000      2.000000
 
 Following cartesian coordinates:
            Coordinates               Weight
  0.019397  0.020623  0.001613      2.000000
 -0.019397  0.020043  0.000687      2.000000
 
 
 Subroutine IBZKPT_HF returns following result:
 ==============================================
 
 Found      4 k-points in 1st BZ
 the following      4 k-points will be used (e.g. in the exchange kernel)
 Following reciprocal coordinates:   # in IRBZ
  0.250000  0.250000  0.000000    0.25000000   1 t-inv F
 -0.250000  0.250000 -0.000000    0.25000000   2 t-inv F
 -0.250000 -0.250000  0.000000    0.25000000   1 t-inv T
  0.250000 -0.250000  0.000000    0.25000000   2 t-inv T


--------------------------------------------------------------------------------------------------------




 Dimension of arrays:
   k-points           NKPTS =      2   k-points in BZ     NKDIM =      4   number of bands    NBANDS=    159
   number of dos      NEDOS =    301   number of ions     NIONS =     60
   non local maximal  LDIM  =      6   non local SUM 2l+1 LMDIM =     18
   total plane-waves  NPLWV = ******
   max r-space proj   IRMAX =      1   max aug-charges    IRDMAX=  14730
   dimension x,y,z NGX =    96 NGY =   90 NGZ =  150
   dimension x,y,z NGXF=   192 NGYF=  180 NGZF=  300
   support grid    NGXF=   192 NGYF=  180 NGZF=  300
   ions per type =              54   4   2
   NGX,Y,Z   is equivalent  to a cutoff of  12.38, 12.17, 12.42 a.u.
   NGXF,Y,Z  is equivalent  to a cutoff of  24.77, 24.34, 24.83 a.u.

 SYSTEM =  unknown system                          
 POSCAR =   C  N Fe                                

 Startparameter for this run:
   NWRITE =      2    write-flag & timer
   PREC   = accura    normal or accurate (medium, high low for compatibility)
   ISTART =      1    job   : 0-new  1-cont  2-samecut
   ICHARG =      0    charge: 1-file 2-atom 10-const
   ISPIN  =      2    spin polarized calculation?
   LNONCOLLINEAR =      F non collinear calculations
   LSORBIT =      F    spin-orbit coupling
   INIWAV =      1    electr: 0-lowe 1-rand  2-diag
   LASPH  =      T    aspherical Exc in radial PAW
   METAGGA=      F    non-selfconsistent MetaGGA calc.

 Electronic Relaxation 1
   ENCUT  =  500.0 eV  36.75 Ry    6.06 a.u.  23.50 22.42 36.62*2*pi/ulx,y,z
   ENINI  =  500.0     initial cutoff
   ENAUG  =  644.9 eV  augmentation charge cutoff
   NELM   =    250;   NELMIN=  2; NELMDL=  0     # of ELM steps 
   EDIFF  = 0.1E-03   stopping-criterion for ELM
   LREAL  =      F    real-space projection
   NLSPLINE    = F    spline interpolate recip. space projectors
   LCOMPAT=      F    compatible to vasp.4.4
   GGA_COMPAT  = T    GGA compatible to vasp.4.4-vasp.4.6
   LMAXPAW     = -100 max onsite density
   LMAXMIX     =    2 max onsite mixed and CHGCAR
   VOSKOWN=      0    Vosko Wilk Nusair interpolation
   ROPT   =    0.00000   0.00000   0.00000
 Ionic relaxation
   EDIFFG = -.3E-01   stopping-criterion for IOM
   NSW    =      0    number of steps for IOM
   NBLOCK =      1;   KBLOCK =      1    inner block; outer block 
   IBRION =     -1    ionic relax: 0-MD 1-quasi-New 2-CG
   NFREE  =      1    steps in history (QN), initial steepest desc. (CG)
   ISIF   =      2    stress and relaxation
   IWAVPR =     10    prediction:  0-non 1-charg 2-wave 3-comb
   ISYM   =      3    0-nonsym 1-usesym 2-fastsym
   LCORR  =      T    Harris-Foulkes like correction to forces

   POTIM  = 0.5000    time-step for ionic-motion
   TEIN   =    0.0    initial temperature
   TEBEG  =    0.0;   TEEND  =   0.0 temperature during run
   SMASS  =  -3.00    Nose mass-parameter (am)
   estimated Nose-frequenzy (Omega)   =  0.10E-29 period in steps =****** mass=  -0.380E-26a.u.
   SCALEE = 1.0000    scale energy and forces
   NPACO  =    256;   APACO  = 16.0  distance and # of slots for P.C.
   PSTRESS=    0.0 pullay stress

  Mass of Ions in am
   POMASS =  12.01 14.00 55.85
  Ionic Valenz
   ZVAL   =   4.00  5.00  8.00
  Atomic Wigner-Seitz radii
   RWIGS  =  -1.00 -1.00 -1.00
  virtual crystal weights 
   VCA    =   1.00  1.00  1.00
   NELECT =     252.0000    total number of electrons
   NUPDOWN=      -1.0000    fix difference up-down

 DOS related values:
   EMIN   =  10.00;   EMAX   =-10.00  energy-range for DOS
   EFERMI =   0.00
   ISMEAR =     0;   SIGMA  =   0.10  broadening in eV -4-tet -1-fermi 0-gaus

 Electronic relaxation 2 (details)
   IALGO  =     53    algorithm
   LDIAG  =      T    sub-space diagonalisation (order eigenvalues)
   LSUBROT=      F    optimize rotation matrix (better conditioning)
   TURBO    =      0    0=normal 1=particle mesh
   IRESTART =      0    0=no restart 2=restart with 2 vectors
   NREBOOT  =      0    no. of reboots
   NMIN     =      0    reboot dimension
   EREF     =   0.00    reference energy to select bands
   IMIX   =      4    mixing-type and parameters
     AMIX     =   0.40;   BMIX     =  1.00
     AMIX_MAG =   1.60;   BMIX_MAG =  1.00
     AMIN     =   0.10
     WC   =   100.;   INIMIX=   1;  MIXPRE=   1;  MAXMIX= -45

 Intra band minimization:
   WEIMIN = 0.0000     energy-eigenvalue tresh-hold
   EBREAK =  0.16E-06  absolut break condition
   DEPER  =   0.30     relativ break condition  

   TIME   =   0.20     timestep for ELM

  volume/ion in A,a.u.               =      52.95       357.31
  Fermi-wavevector in a.u.,A,eV,Ry     =   0.703409  1.329251  6.731950  0.494784
  Thomas-Fermi vector in A             =   1.788372
 
 Write flags
   LWAVE        =      T    write WAVECAR
   LDOWNSAMPLE  =      F    k-point downsampling of WAVECAR
   LCHARG       =      T    write CHGCAR
   LVTOT        =      F    write LOCPOT, total local potential
   LVHAR        =      T    write LOCPOT, Hartree potential only
   LELF         =      F    write electronic localiz. function (ELF)
   LORBIT       =     11    0 simple, 1 ext, 2 COOP (PROOUT), +10 PAW based schemes


 Dipole corrections
   LMONO  =      F    monopole corrections only (constant potential shift)
   LDIPOL =      T    correct potential (dipole corrections)
   IDIPOL =      3    1-x, 2-y, 3-z, 4-all directions 
   EPSILON=  1.0000000 bulk dielectric constant

 Exchange correlation treatment:
   GGA     =    PE    GGA type
   LEXCH   =     8    internal setting for exchange type
   VOSKOWN=      0    Vosko Wilk Nusair interpolation
   EXXOEP  =     0    0=HF, 1=EXX-LHF (local Hartree Fock) 2=EXX OEP
   LHFCALC =     T    Hartree Fock is set to
   LSYMGRAD=     F    symmetrize gradient (conserves proper symmetry)
   PRECFOCK=normal    Normal, Fast or Accurate (Low or Medium for compatibility)
   LRHFCALC=     F    long range Hartree Fock
   LRSCOR  =     F    long range correlation only (use DFT for short range part)
   LTHOMAS =     F    Thomas Fermi screening in HF
   LMODELHF=     F    short range full HF, long range fraction AEXX
   ENCUT4O =  -1.0   cutoff for four orbital integrals eV
   LMAXFOCK=     4    L truncation for augmentation on plane wave grid
   LMAXFOCKAE=  -1    L truncation for all-electron charge restoration on plane wave grid
   NMAXFOCKAE=   1    number of basis functions for all-electron charge restoration
   LFOCKAEDFT=     F  apply the AE augmentation even for DFT
   NKREDX  =     1    reduce k-point grid by
   NKREDY  =     1    reduce k-point grid by
   NKREDZ  =     1    reduce k-point grid by
   SHIFTRED=     F    shift reduced grid of Gamma
   HFKIDENT=     F    idential grid for each k-point
   ODDONLY =     F    use only odd q-grid points
   EVENONLY=     F    use only even q-grid points
   HFALPHA =   -1.0000 decay constant for conv. correction
   MCALPHA =    0.0000 extent of test-charge in conv. correction in multipole expansion
   AEXX    =    0.2500 exact exchange contribution
   HFSCREEN=    0.2000 screening length (either q_TF or 0.3 A-1)
   HFSCREENC=   0.2000 screening length for correlation (either q_TF or 0.3 A-1)
   HFRCUT  =    0.0000 spherical cutoff for potential kernel
   ALDAX   =    0.7500 LDA exchange part
   AGGAX   =    0.7500 GGA exchange part
   ALDAC   =    1.0000 LDA correlation
   AGGAC   =    1.0000 GGA correlation
   ENCUTFOCK=  -1.0 apply spherical cutoff to Coloumb kernel
   NBANDSGWLOW=     1    first orbital included in HF term
   NBLOCK_FOCK=    64    blocking factor in FOCK_ACC
 Linear response parameters
   LEPSILON=     F    determine dielectric tensor
   LRPA    =     F    only Hartree local field effects (RPA)
   LNABLA  =     F    use nabla operator in PAW spheres
   LVEL    =     F    velocity operator in full k-point grid
   LINTERFAST=   F  fast interpolation
   KINTER  =     0    interpolate to denser k-point grid
   CSHIFT  =0.1000    complex shift for real part using Kramers Kronig
   OMEGAMAX=  -1.0    maximum frequency
   DEG_THRESHOLD= 0.2000000E-02 threshold for treating states as degnerate
   RTIME   =   -0.100 relaxation time in fs
  (WPLASMAI=    0.000 imaginary part of plasma frequency in eV, 0.658/RTIME)
   DFIELD  = 0.0000000 0.0000000 0.0000000 field for delta impulse in time
 
 Orbital magnetization related:
   ORBITALMAG=     F  switch on orbital magnetization
   LCHIMAG   =     F  perturbation theory with respect to B field
   DQ        =  0.001000  dq finite difference perturbation B field
   LLRAUG    =     F  two centre corrections for induced B field



--------------------------------------------------------------------------------------------------------


 Static calculation
 charge density and potential will be updated during run
 spin polarized calculation
 Conjugate gradient for all bands (Freysoldt, et al. PRB 79, 241103 (2009))
 perform sub-space diagonalisation
    before iterative eigenvector-optimisation
 modified Broyden-mixing scheme, WC =      100.0
 initial mixing is a Kerker type mixing with AMIX =  0.4000 and BMIX =      1.0000
 Hartree-type preconditioning will be used
 using additional bands           33
 reciprocal scheme for non local part
 use partial core corrections
 no Harris-corrections to forces 
 use gradient corrections 
 use of overlap-Matrix (Vanderbilt PP)
 Gauss-broadening in eV      SIGMA  =   0.10


--------------------------------------------------------------------------------------------------------


  energy-cutoff  :      500.00
  volume of cell :     3176.88
      direct lattice vectors                 reciprocal lattice vectors
    12.888400000  0.000000000  0.000000000     0.077589150  0.001159676  0.001853713
    -0.183768974 12.295226737  0.000000000     0.000000000  0.081332376  0.004600226
    -0.462020683 -1.133916932 20.047743297     0.000000000  0.000000000  0.049880926

  length of vectors
    12.888400000 12.296600000 20.085100000     0.077619954  0.081462368  0.049880926


 
 old parameters found on file WAVECAR:
  energy-cutoff  :      500.00
  volume of cell :     3176.88
      direct lattice vectors                 reciprocal lattice vectors
    12.888400000  0.000000000  0.000000000     0.077589150  0.001159676  0.001853713
    -0.183768974 12.295226737  0.000000000     0.000000000  0.081332376  0.004600226
    -0.462020683 -1.133916932 20.047743297     0.000000000  0.000000000  0.049880926

  length of vectors

 
 k-points in units of 2pi/SCALE and weight: KPOINTS created by Atomic Simulation Env
   0.01939729  0.02062301  0.00161348       0.500
  -0.01939729  0.02004317  0.00068663       0.500
 
 k-points in reciprocal lattice and weights: KPOINTS created by Atomic Simulation Env
   0.25000000  0.25000000  0.00000000       0.500
  -0.25000000  0.25000000 -0.00000000       0.500
 
 position of ions in fractional coordinates (direct lattice) 
   0.22284397  0.00291203  0.49736190
   0.05782947  0.10157163  0.49517019
   0.11180093  0.00171967  0.49566046
   0.27994759  0.10361350  0.49838192
   0.22691761  0.20581795  0.49838138
   0.05940913  0.30170864  0.49595443
   0.11530712  0.20263275  0.49631676
   0.28421749  0.30855760  0.50075099
   0.22637239  0.40920959  0.50050353
   0.05570444  0.50119399  0.49666809
   0.11452696  0.40348552  0.49726822
   0.21770200  0.60379657  0.49982505
   0.05337060  0.70205718  0.49581325
   0.10882734  0.60282703  0.49704824
   0.27331632  0.70453664  0.50061050
   0.21924713  0.80306302  0.49798446
   0.05434550  0.90152400  0.49515507
   0.10880820  0.80215863  0.49594998
   0.27687625  0.90241213  0.49870349
   0.55541675  0.99538711  0.50001204
   0.39065636  0.10063531  0.49938311
   0.44472710  0.99841799  0.50000667
   0.61244743  0.09587336  0.49874374
   0.55845553  0.19650012  0.49911782
   0.39650953  0.30547247  0.50176454
   0.44788840  0.20122497  0.49987511
   0.61603510  0.29572717  0.49832729
   0.56211789  0.39473291  0.50058420
   0.61769650  0.49538250  0.50051644
   0.60913473  0.69015963  0.50225418
   0.55131918  0.79090842  0.50276383
   0.38751793  0.89793061  0.50046101
   0.43904250  0.79411664  0.50307762
   0.60849262  0.89323187  0.50055670
   0.88866053  0.99891829  0.49515387
   0.72337947  0.09677598  0.49710777
   0.77729336  0.99684074  0.49670163
   0.94639886  0.09928462  0.49469714
   0.89157372  0.19866464  0.49500090
   0.72632519  0.29626628  0.49658337
   0.78075299  0.19678502  0.49595320
   0.94810689  0.29942989  0.49519879
   0.89182315  0.39823048  0.49561413
   0.72637140  0.49587142  0.49780462
   0.78171376  0.39638478  0.49626200
   0.94574731  0.49950513  0.49596415
   0.88934222  0.59896016  0.49630668
   0.72071450  0.69527961  0.49889994
   0.77947725  0.59744492  0.49763758
   0.94323262  0.70013166  0.49575762
   0.88692195  0.79886723  0.49588744
   0.71995532  0.89601567  0.49834464
   0.77574744  0.79679413  0.49757190
   0.94344823  0.89955344  0.49506535
   0.27565674  0.51041007  0.50358421
   0.45566228  0.40078313  0.50448825
   0.56003283  0.58947407  0.50465420
   0.37999413  0.69927334  0.50521061
   0.41814841  0.55081958  0.51484389
   0.42063144  0.55841657  0.62274390
 
 position of ions in cartesian coordinates  (Angst):
   2.64177559 -0.52816303  9.97098377
   0.49788481  0.68736431  9.92704476
   1.21161368 -0.54089409  9.93687365
   3.35877277  0.70882783  9.99143284
   2.65651947  1.96545526  9.99142188
   0.48110269  3.14720504  9.94276707
   1.21957804  1.92863360  9.95003095
   3.37504804  3.22597562 10.03892740
   2.61113494  4.46379531 10.03396628
   0.39636627  5.59911344  9.95707437
   1.17217297  4.39708507  9.96910559
   2.46394191  6.85705561 10.02036421
   0.32976938  8.06974115  9.93993677
   1.06218282  6.84828355  9.96469561
   3.16184573  8.09478700 10.03611089
   2.44808756  9.30916895  9.98346465
   0.30598250 10.52297723  9.92674173
   1.02581260  9.30035617  9.94267793
   3.17224518 10.52987346  9.99787951
   6.74449602 11.67153804 10.02411293
   4.78571651  0.67107502 10.01150435
   5.31732911 11.70880951 10.02400538
   7.64541899  0.61325068  9.99868638
   6.93088487  1.85005540 10.00618596
   4.82241143  3.18689392 10.05924678
   5.50463330  1.90728972 10.02136793
   7.65512373  3.07097083  9.99033767
   6.94098036  4.28570977 10.03558363
   7.63883467  5.52329613 10.03422508
   7.49189036  7.91615465 10.06906289
   6.72799040  9.15430596 10.07928025
   4.59825095 10.47277918 10.03311395
   5.28018910  9.19339592 10.08557103
   7.44708043 10.41489866 10.03503229
  11.04107091 11.72046357  9.92671760
   9.07574553  0.62620374  9.96588899
   9.60539295 11.69316453  9.95774685
  11.95076132  0.65978146  9.91756136
  11.22574964  1.88133688  9.92365099
   9.07729318  3.07957681  9.95537587
   9.79735327  1.85714676  9.94274241
  11.93576282  3.12004408  9.92761818
  11.19200708  4.33434880  9.93594485
   9.04064335  5.53238247  9.97985925
   9.77291308  4.31092092  9.94893309
  11.86823045  5.57914670  9.94296191
  11.12282404  6.80158046  9.94982890
   8.93058381  7.98290933 10.00181789
   9.70650390  6.78144111  9.97651049
  11.79904651  8.04612953  9.93882158
  11.05508763  9.25995857  9.94142404
   8.88416676 10.45163436  9.99068537
   9.62182873  9.23255926  9.97519366
  11.76549773 10.49885055  9.92494315
   3.22631044  5.70458487 10.09572702
   5.56602225  4.35567163 10.11385095
   6.87643941  6.67548135 10.11717790
   4.53559389  8.02485738 10.12833253
   5.05017194  6.18866147 10.32145821
   5.03092601  6.15971855 12.48460976
 


--------------------------------------------------------------------------------------------------------


 k-point  1 :   0.2500 0.2500 0.0000  plane waves:   80685
 k-point  2 :  -0.2500 0.2500-0.0000  plane waves:   80655

 maximum and minimum number of plane-waves per node :      2038     1969

 maximum number of plane-waves:     80685
 maximum index in each direction: 
   IXMAX=   23   IYMAX=   22   IZMAX=   36
   IXMIN=  -23   IYMIN=  -22   IZMIN=  -36


 parallel 3D FFT for wavefunctions:
    minimum data exchange during FFTs selected (reduces bandwidth)
 parallel 3D FFT for charge:
    minimum data exchange during FFTs selected (reduces bandwidth)


 FFT grid for exact exchange (Hartree Fock) 
  NGX = 72; NGY = 70; NGZ =112

 
 Radii for the augmentation spheres in the non-local exchange
 for species   1 augmentation radius   0.874 (default was   0.699)
       energy cutoff for augmentation   2000.0
 for species   2 augmentation radius   0.886 (default was   0.709)
       energy cutoff for augmentation   2000.0
 for species   3 augmentation radius   1.263 (default was   1.010)
       energy cutoff for augmentation   2000.0

 real space projection operators:
  total allocation   :       2613.34 KBytes
  max/ min on nodes  :        120.84         21.87

 Maximum index for augmentation-charges in exchange           80
  SETUP_FOCK is finished

 total amount of memory used by VASP MPI-rank0   137045. kBytes
=======================================================================

   base      :      30000. kBytes
   nonl-proj :       3731. kBytes
   fftplans  :      11188. kBytes
   grid      :      27138. kBytes
   one-center:         62. kBytes
   HF        :         23. kBytes
   nonlr-proj:       1651. kBytes
   wavefun   :      63252. kBytes
 
     INWAV:  cpu time    4.2082: real time    4.2200
 Broyden mixing: mesh for mixing (old mesh)
   NGX = 47   NGY = 45   NGZ = 73
  (NGX  =192   NGY  =180   NGZ  =300)
  gives a total of 154395 points

 charge density for first step will be calculated from the start-wavefunctions


--------------------------------------------------------------------------------------------------------


 Maximum index for augmentation-charges          703 (set IRDMAX)


--------------------------------------------------------------------------------------------------------


 initial charge from wavefunction
 First call to EWALD:  gamma=   0.121
 Maximum number of real-space cells 3x 3x 2
 Maximum number of reciprocal cells 2x 2x 4

    FEWALD:  cpu time    0.0018: real time    0.0018


--------------------------------------- Iteration      1(   1)  ---------------------------------------


    POTLOK:  cpu time    0.8588: real time    0.8644
    SETDIJ:  cpu time    1.0230: real time    1.0268
    TRIAL :  cpu time  168.9844: real time  169.4598
    CORREC:  cpu time    0.0007: real time    0.0007
    CHARGE:  cpu time    0.7571: real time    0.7591
    --------------------------------------------
      LOOP:  cpu time  171.6437: real time  172.1335

 eigenvalue-minimisations  :     0
 total energy-change (2. order) :-0.6309282E+03  (-0.4929794E+00)
 number of electron     251.9999999 magnetization       4.0063500
 augmentation part       14.4129591 magnetization       2.8007614

 DIPCOR: dipole corrections for dipol
 direction  3 min pos     1,
 dipolmoment           0.007050      0.017303     -0.305914 electrons x Angstroem
 Tr[quadrupol]     -6989.939272

 energy correction for charged system         0.000000 eV
 dipol+quadrupol energy correction           -0.002695 eV
 added-field ion interaction          0.261871 eV  (added to PSCEN)


 Free energy of the ion-electron system (eV)
  ---------------------------------------------------
  alpha Z        PSCENC =       108.77010954
  Ewald energy   TEWEN  =     41213.13681908
  -Hartree energ DENC   =    -49957.04855605
  -exchange      EXHF   =       570.59143045
  -V(xc)+E(xc)   XCENC  =       637.83527050
  PAW double counting   =     27361.62858930   -27408.48241692
  entropy T*S    EENTRO =        -0.00132874
  eigenvalues    EBANDS =     -3233.10711699
  atomic energy  EATOM  =     10075.75506885
  ---------------------------------------------------
  free energy    TOTEN  =      -630.92816388 eV

  energy without entropy =     -630.92683514  energy(sigma->0) =     -630.92749951
  exchange ACFDT corr.  =        -0.03451017  see jH, gK, PRB 81, 115126


--------------------------------------------------------------------------------------------------------




--------------------------------------- Iteration      1(   2)  ---------------------------------------


    POTLOK:  cpu time    0.8586: real time    0.8637
    SETDIJ:  cpu time    1.0223: real time    1.0267
    TRIAL :  cpu time  172.4279: real time  172.9318
    CORREC:  cpu time    0.0007: real time    0.0007
    CHARGE:  cpu time    0.7555: real time    0.7575
    --------------------------------------------
      LOOP:  cpu time  175.0663: real time  175.5846

 eigenvalue-minimisations  :     0
 total energy-change (2. order) :-0.3863413E+00  (-0.3903780E+00)
 number of electron     251.9999999 magnetization       4.0001602
 augmentation part       14.3844500 magnetization       2.8477600

 DIPCOR: dipole corrections for dipol
 direction  3 min pos     1,
 dipolmoment           0.008761      0.021502     -0.380154 electrons x Angstroem
 Tr[quadrupol]     -6990.054958

 energy correction for charged system         0.000000 eV
 dipol+quadrupol energy correction           -0.004161 eV
 added-field ion interaction          0.325422 eV  (added to PSCEN)


 Free energy of the ion-electron system (eV)
  ---------------------------------------------------
  alpha Z        PSCENC =       108.83219415
  Ewald energy   TEWEN  =     41213.13681908
  -Hartree energ DENC   =    -49950.85629094
  -exchange      EXHF   =       570.52832827
  -V(xc)+E(xc)   XCENC  =       637.51793799
  PAW double counting   =     27497.24592700   -27544.13390013
  entropy T*S    EENTRO =        -0.00004441
  eigenvalues    EBANDS =     -3239.33926072
  atomic energy  EATOM  =     10075.75506885
  ---------------------------------------------------
  free energy    TOTEN  =      -631.31450519 eV

  energy without entropy =     -631.31446078  energy(sigma->0) =     -631.31448298
  exchange ACFDT corr.  =        -0.00638653  see jH, gK, PRB 81, 115126


--------------------------------------------------------------------------------------------------------




--------------------------------------- Iteration      1(   3)  ---------------------------------------


    POTLOK:  cpu time    0.8602: real time    0.8673
    SETDIJ:  cpu time    1.0299: real time    1.0328
    TRIAL :  cpu time  172.1130: real time  172.5992
    CORREC:  cpu time    0.0010: real time    0.0010
    CHARGE:  cpu time    0.7580: real time    0.7614
    --------------------------------------------
      LOOP:  cpu time  174.7626: real time  175.2665

 eigenvalue-minimisations  :     0
 total energy-change (2. order) :-0.2916660E+00  (-0.2033359E+00)
 number of electron     252.0000000 magnetization       4.0000047
 augmentation part       14.3639321 magnetization       2.8832438

 DIPCOR: dipole corrections for dipol
 direction  3 min pos     1,
 dipolmoment           0.010233      0.025113     -0.444006 electrons x Angstroem
 Tr[quadrupol]     -6990.110092

 energy correction for charged system         0.000000 eV
 dipol+quadrupol energy correction           -0.005676 eV
 added-field ion interaction          0.380081 eV  (added to PSCEN)


 Free energy of the ion-electron system (eV)
  ---------------------------------------------------
  alpha Z        PSCENC =       108.88533806
  Ewald energy   TEWEN  =     41213.13681908
  -Hartree energ DENC   =    -49939.45444261
  -exchange      EXHF   =       570.44691186
  -V(xc)+E(xc)   XCENC  =       637.13609140
  PAW double counting   =     27665.44127411   -27711.87602056
  entropy T*S    EENTRO =        -0.00000135
  eigenvalues    EBANDS =     -3251.07716699
  atomic energy  EATOM  =     10075.75506885
  ---------------------------------------------------
  free energy    TOTEN  =      -631.60617123 eV

  energy without entropy =     -631.60616988  energy(sigma->0) =     -631.60617055
  exchange ACFDT corr.  =        -0.00018003  see jH, gK, PRB 81, 115126


--------------------------------------------------------------------------------------------------------




--------------------------------------- Iteration      1(   4)  ---------------------------------------


    POTLOK:  cpu time    0.8753: real time    0.8832
    SETDIJ:  cpu time    1.0191: real time    1.0220
    TRIAL :  cpu time  171.4169: real time  171.9021
    CORREC:  cpu time    0.0006: real time    0.0006
    CHARGE:  cpu time    0.7532: real time    0.7552
    --------------------------------------------
      LOOP:  cpu time  174.0662: real time  174.5679

 eigenvalue-minimisations  :     0
 total energy-change (2. order) :-0.1525126E+00  (-0.1120980E+00)
 number of electron     252.0000000 magnetization       4.0000012
 augmentation part       14.3687329 magnetization       2.9021209

 DIPCOR: dipole corrections for dipol
 direction  3 min pos     1,
 dipolmoment           0.010944      0.026859     -0.474871 electrons x Angstroem
 Tr[quadrupol]     -6990.183140

 energy correction for charged system         0.000000 eV
 dipol+quadrupol energy correction           -0.006493 eV
 added-field ion interaction          0.406503 eV  (added to PSCEN)


 Free energy of the ion-electron system (eV)
  ---------------------------------------------------
  alpha Z        PSCENC =       108.91094302
  Ewald energy   TEWEN  =     41213.13681908
  -Hartree energ DENC   =    -49933.62820764
  -exchange      EXHF   =       570.53290306
  -V(xc)+E(xc)   XCENC  =       636.95176303
  PAW double counting   =     27810.47144616   -27856.59450256
  entropy T*S    EENTRO =        -0.00000020
  eigenvalues    EBANDS =     -3257.29491552
  atomic energy  EATOM  =     10075.75506885
  ---------------------------------------------------
  free energy    TOTEN  =      -631.75868388 eV

  energy without entropy =     -631.75868368  energy(sigma->0) =     -631.75868378
  exchange ACFDT corr.  =        -0.00000216  see jH, gK, PRB 81, 115126


--------------------------------------------------------------------------------------------------------




--------------------------------------- Iteration      1(   5)  ---------------------------------------


    POTLOK:  cpu time    0.8722: real time    0.8758
    SETDIJ:  cpu time    1.0219: real time    1.0245
    TRIAL :  cpu time  171.6324: real time  172.6756
    CORREC:  cpu time    0.0006: real time    0.0006
    CHARGE:  cpu time    0.7501: real time    0.7535
    --------------------------------------------
      LOOP:  cpu time  174.2782: real time  175.3347

 eigenvalue-minimisations  :     0
 total energy-change (2. order) :-0.8921270E-01  (-0.7123448E-01)
 number of electron     252.0000000 magnetization       4.0000007
 augmentation part       14.3798887 magnetization       2.9079973

 DIPCOR: dipole corrections for dipol
 direction  3 min pos     1,
 dipolmoment           0.011358      0.027875     -0.492832 electrons x Angstroem
 Tr[quadrupol]     -6990.303610

 energy correction for charged system         0.000000 eV
 dipol+quadrupol energy correction           -0.006993 eV
 added-field ion interaction          0.421877 eV  (added to PSCEN)


 Free energy of the ion-electron system (eV)
  ---------------------------------------------------
  alpha Z        PSCENC =       108.92581731
  Ewald energy   TEWEN  =     41213.13681908
  -Hartree energ DENC   =    -49935.78848289
  -exchange      EXHF   =       570.77363757
  -V(xc)+E(xc)   XCENC  =       636.98778240
  PAW double counting   =     27916.15634080   -27962.34044424
  entropy T*S    EENTRO =        -0.00000005
  eigenvalues    EBANDS =     -3255.45443527
  atomic energy  EATOM  =     10075.75506885
  ---------------------------------------------------
  free energy    TOTEN  =      -631.84789658 eV

  energy without entropy =     -631.84789653  energy(sigma->0) =     -631.84789656
  exchange ACFDT corr.  =        -0.00000012  see jH, gK, PRB 81, 115126


--------------------------------------------------------------------------------------------------------




--------------------------------------- Iteration      1(   6)  ---------------------------------------


    POTLOK:  cpu time    0.8661: real time    0.8693
    SETDIJ:  cpu time    1.0184: real time    1.0209
    TRIAL :  cpu time  171.4105: real time  171.9123
    CORREC:  cpu time    0.0006: real time    0.0006
    CHARGE:  cpu time    0.7533: real time    0.7552
    --------------------------------------------
      LOOP:  cpu time  174.0501: real time  174.5630

 eigenvalue-minimisations  :     0
 total energy-change (2. order) :-0.5890095E-01  (-0.4733768E-01)
 number of electron     252.0000000 magnetization       4.0000007
 augmentation part       14.3855732 magnetization       2.9061092

 DIPCOR: dipole corrections for dipol
 direction  3 min pos     1,
 dipolmoment           0.011502      0.028230     -0.499105 electrons x Angstroem
 Tr[quadrupol]     -6990.399305

 energy correction for charged system         0.000000 eV
 dipol+quadrupol energy correction           -0.007172 eV
 added-field ion interaction          0.427248 eV  (added to PSCEN)


 Free energy of the ion-electron system (eV)
  ---------------------------------------------------
  alpha Z        PSCENC =       108.93100828
  Ewald energy   TEWEN  =     41213.13681908
  -Hartree energ DENC   =    -49940.22997544
  -exchange      EXHF   =       571.04279826
  -V(xc)+E(xc)   XCENC  =       637.10854469
  PAW double counting   =     27984.52065464   -28030.85329050
  entropy T*S    EENTRO =        -0.00000001
  eigenvalues    EBANDS =     -3251.31842535
  atomic energy  EATOM  =     10075.75506885
  ---------------------------------------------------
  free energy    TOTEN  =      -631.90679753 eV

  energy without entropy =     -631.90679752  energy(sigma->0) =     -631.90679752
  exchange ACFDT corr.  =        -0.00000002  see jH, gK, PRB 81, 115126


--------------------------------------------------------------------------------------------------------




--------------------------------------- Iteration      1(   7)  ---------------------------------------


    POTLOK:  cpu time    0.8621: real time    0.8669
    SETDIJ:  cpu time    1.0168: real time    1.0194
    TRIAL :  cpu time  171.7172: real time  172.2366
    CORREC:  cpu time    0.0006: real time    0.0006
    CHARGE:  cpu time    0.7514: real time    0.7549
    --------------------------------------------
      LOOP:  cpu time  174.3491: real time  174.8831

 eigenvalue-minimisations  :     0
 total energy-change (2. order) :-0.4030445E-01  (-0.3259589E-01)
 number of electron     252.0000000 magnetization       4.0000006
 augmentation part       14.3876502 magnetization       2.9010532

 DIPCOR: dipole corrections for dipol
 direction  3 min pos     1,
 dipolmoment           0.011495      0.028211     -0.498766 electrons x Angstroem
 Tr[quadrupol]     -6990.446394

 energy correction for charged system         0.000000 eV
 dipol+quadrupol energy correction           -0.007163 eV
 added-field ion interaction          0.426957 eV  (added to PSCEN)


 Free energy of the ion-electron system (eV)
  ---------------------------------------------------
  alpha Z        PSCENC =       108.93072763
  Ewald energy   TEWEN  =     41213.13681908
  -Hartree energ DENC   =    -49943.47169919
  -exchange      EXHF   =       571.25769252
  -V(xc)+E(xc)   XCENC  =       637.21543971
  PAW double counting   =     28024.60097421   -28070.99721463
  entropy T*S    EENTRO =        -0.00000001
  eigenvalues    EBANDS =     -3248.37491014
  atomic energy  EATOM  =     10075.75506885
  ---------------------------------------------------
  free energy    TOTEN  =      -631.94710198 eV

  energy without entropy =     -631.94710197  energy(sigma->0) =     -631.94710198
  exchange ACFDT corr.  =        -0.00000001  see jH, gK, PRB 81, 115126


--------------------------------------------------------------------------------------------------------




--------------------------------------- Iteration      1(   8)  ---------------------------------------


    POTLOK:  cpu time    0.8620: real time    0.8650
    SETDIJ:  cpu time    1.0243: real time    1.0269
    TRIAL :  cpu time  171.6448: real time  172.1237
    CORREC:  cpu time    0.0006: real time    0.0006
    CHARGE:  cpu time    0.7518: real time    0.7536
    --------------------------------------------
      LOOP:  cpu time  174.2849: real time  174.7745

 eigenvalue-minimisations  :     0
 total energy-change (2. order) :-0.2847773E-01  (-0.2353522E-01)
 number of electron     252.0000000 magnetization       4.0000006
 augmentation part       14.3900226 magnetization       2.8959263

 DIPCOR: dipole corrections for dipol
 direction  3 min pos     1,
 dipolmoment           0.011499      0.028222     -0.498970 electrons x Angstroem
 Tr[quadrupol]     -6990.465518

 energy correction for charged system         0.000000 eV
 dipol+quadrupol energy correction           -0.007169 eV
 added-field ion interaction          0.427132 eV  (added to PSCEN)


 Free energy of the ion-electron system (eV)
  ---------------------------------------------------
  alpha Z        PSCENC =       108.93089671
  Ewald energy   TEWEN  =     41213.13681908
  -Hartree energ DENC   =    -49945.30489183
  -exchange      EXHF   =       571.40263911
  -V(xc)+E(xc)   XCENC  =       637.28228816
  PAW double counting   =     28046.06693654   -28092.47602604
  entropy T*S    EENTRO =        -0.00000000
  eigenvalues    EBANDS =     -3246.76931028
  atomic energy  EATOM  =     10075.75506885
  ---------------------------------------------------
  free energy    TOTEN  =      -631.97557971 eV

  energy without entropy =     -631.97557970  energy(sigma->0) =     -631.97557971
  exchange ACFDT corr.  =        -0.00000000  see jH, gK, PRB 81, 115126


--------------------------------------------------------------------------------------------------------




--------------------------------------- Iteration      1(   9)  ---------------------------------------


    POTLOK:  cpu time    0.8591: real time    0.8622
    SETDIJ:  cpu time    1.0168: real time    1.0194
    TRIAL :  cpu time  170.9749: real time  171.4683
    CORREC:  cpu time    0.0005: real time    0.0005
    CHARGE:  cpu time    0.7519: real time    0.7539
    --------------------------------------------
      LOOP:  cpu time  173.6043: real time  174.1089

 eigenvalue-minimisations  :     0
 total energy-change (2. order) :-0.2102889E-01  (-0.1769516E-01)
 number of electron     252.0000000 magnetization       4.0000006
 augmentation part       14.3930986 magnetization       2.8916998

 DIPCOR: dipole corrections for dipol
 direction  3 min pos     1,
 dipolmoment           0.011516      0.028264     -0.499709 electrons x Angstroem
 Tr[quadrupol]     -6990.470889

 energy correction for charged system         0.000000 eV
 dipol+quadrupol energy correction           -0.007190 eV
 added-field ion interaction          0.427765 eV  (added to PSCEN)


 Free energy of the ion-electron system (eV)
  ---------------------------------------------------
  alpha Z        PSCENC =       108.93150807
  Ewald energy   TEWEN  =     41213.13681908
  -Hartree energ DENC   =    -49946.22012025
  -exchange      EXHF   =       571.49446178
  -V(xc)+E(xc)   XCENC  =       637.31735655
  PAW double counting   =     28056.69367354   -28103.12845445
  entropy T*S    EENTRO =        -0.00000000
  eigenvalues    EBANDS =     -3245.97692177
  atomic energy  EATOM  =     10075.75506885
  ---------------------------------------------------
  free energy    TOTEN  =      -631.99660860 eV

  energy without entropy =     -631.99660860  energy(sigma->0) =     -631.99660860
  exchange ACFDT corr.  =        -0.00000000  see jH, gK, PRB 81, 115126


--------------------------------------------------------------------------------------------------------




--------------------------------------- Iteration      1(  10)  ---------------------------------------


    POTLOK:  cpu time    0.8541: real time    0.8569
    SETDIJ:  cpu time    1.0248: real time    1.0286
    TRIAL :  cpu time  171.6126: real time  172.0900
    CORREC:  cpu time    0.0005: real time    0.0005
    CHARGE:  cpu time    0.7478: real time    0.7497
    --------------------------------------------
      LOOP:  cpu time  174.2417: real time  174.7308

 eigenvalue-minimisations  :     0
 total energy-change (2. order) :-0.1608172E-01  (-0.1370830E-01)
 number of electron     252.0000000 magnetization       4.0000007
 augmentation part       14.3955227 magnetization       2.8877354

 DIPCOR: dipole corrections for dipol
 direction  3 min pos     1,
 dipolmoment           0.011474      0.028160     -0.497877 electrons x Angstroem
 Tr[quadrupol]     -6990.464944

 energy correction for charged system         0.000000 eV
 dipol+quadrupol energy correction           -0.007137 eV
 added-field ion interaction          0.426196 eV  (added to PSCEN)


 Free energy of the ion-electron system (eV)
  ---------------------------------------------------
  alpha Z        PSCENC =       108.92999235
  Ewald energy   TEWEN  =     41213.13681908
  -Hartree energ DENC   =    -49946.46414167
  -exchange      EXHF   =       571.55434132
  -V(xc)+E(xc)   XCENC  =       637.33376004
  PAW double counting   =     28061.43198622   -28107.91179139
  entropy T*S    EENTRO =        -0.00000000
  eigenvalues    EBANDS =     -3245.77872511
  atomic energy  EATOM  =     10075.75506885
  ---------------------------------------------------
  free energy    TOTEN  =      -632.01269032 eV

  energy without entropy =     -632.01269032  energy(sigma->0) =     -632.01269032
  exchange ACFDT corr.  =        -0.00000000  see jH, gK, PRB 81, 115126


--------------------------------------------------------------------------------------------------------




--------------------------------------- Iteration      1(  11)  ---------------------------------------


    POTLOK:  cpu time    0.8527: real time    0.8555
    SETDIJ:  cpu time    1.0170: real time    1.0195
    TRIAL :  cpu time  170.9697: real time  171.4451
    CORREC:  cpu time    0.0006: real time    0.0006
    CHARGE:  cpu time    0.7481: real time    0.7499
    --------------------------------------------
      LOOP:  cpu time  173.5897: real time  174.0763

 eigenvalue-minimisations  :     0
 total energy-change (2. order) :-0.1263631E-01  (-0.1094868E-01)
 number of electron     252.0000000 magnetization       4.0000007
 augmentation part       14.3969119 magnetization       2.8833293

 DIPCOR: dipole corrections for dipol
 direction  3 min pos     1,
 dipolmoment           0.011376      0.027919     -0.493606 electrons x Angstroem
 Tr[quadrupol]     -6990.452194

 energy correction for charged system         0.000000 eV
 dipol+quadrupol energy correction           -0.007015 eV
 added-field ion interaction          0.422540 eV  (added to PSCEN)


 Free energy of the ion-electron system (eV)
  ---------------------------------------------------
  alpha Z        PSCENC =       108.92645818
  Ewald energy   TEWEN  =     41213.13681908
  -Hartree energ DENC   =    -49946.27539773
  -exchange      EXHF   =       571.59651686
  -V(xc)+E(xc)   XCENC  =       637.34008651
  PAW double counting   =     28063.02925363   -28109.54754264
  entropy T*S    EENTRO =        -0.00000000
  eigenvalues    EBANDS =     -3245.98658938
  atomic energy  EATOM  =     10075.75506885
  ---------------------------------------------------
  free energy    TOTEN  =      -632.02532663 eV

  energy without entropy =     -632.02532663  energy(sigma->0) =     -632.02532663
  exchange ACFDT corr.  =        -0.00000000  see jH, gK, PRB 81, 115126


--------------------------------------------------------------------------------------------------------




--------------------------------------- Iteration      1(  12)  ---------------------------------------


    POTLOK:  cpu time    0.8504: real time    0.8527
    SETDIJ:  cpu time    1.0278: real time    1.0305
    TRIAL :  cpu time  171.1551: real time  171.6316
    CORREC:  cpu time    0.0005: real time    0.0005
    CHARGE:  cpu time    0.7494: real time    0.7514
    --------------------------------------------
      LOOP:  cpu time  173.7850: real time  174.2721

 eigenvalue-minimisations  :     0
 total energy-change (2. order) :-0.1022454E-01  (-0.9016945E-02)
 number of electron     252.0000000 magnetization       4.0000007
 augmentation part       14.3978580 magnetization       2.8783261

 DIPCOR: dipole corrections for dipol
 direction  3 min pos     1,
 dipolmoment           0.011277      0.027676     -0.489310 electrons x Angstroem
 Tr[quadrupol]     -6990.439216

 energy correction for charged system         0.000000 eV
 dipol+quadrupol energy correction           -0.006894 eV
 added-field ion interaction          0.418863 eV  (added to PSCEN)


 Free energy of the ion-electron system (eV)
  ---------------------------------------------------
  alpha Z        PSCENC =       108.92290246
  Ewald energy   TEWEN  =     41213.13681908
  -Hartree energ DENC   =    -49945.95485296
  -exchange      EXHF   =       571.62943305
  -V(xc)+E(xc)   XCENC  =       637.34197135
  PAW double counting   =     28063.22243854   -28109.76079603
  entropy T*S    EENTRO =        -0.00000000
  eigenvalues    EBANDS =     -3246.32853553
  atomic energy  EATOM  =     10075.75506885
  ---------------------------------------------------
  free energy    TOTEN  =      -632.03555118 eV

  energy without entropy =     -632.03555118  energy(sigma->0) =     -632.03555118
  exchange ACFDT corr.  =        -0.00000000  see jH, gK, PRB 81, 115126


--------------------------------------------------------------------------------------------------------




--------------------------------------- Iteration      1(  13)  ---------------------------------------


    POTLOK:  cpu time    0.8505: real time    0.8529
    SETDIJ:  cpu time    1.0178: real time    1.0204
    TRIAL :  cpu time  171.0834: real time  171.5705
    CORREC:  cpu time    0.0005: real time    0.0005
    CHARGE:  cpu time    0.7477: real time    0.7497
    --------------------------------------------
      LOOP:  cpu time  173.7017: real time  174.1991

 eigenvalue-minimisations  :     0
 total energy-change (2. order) :-0.8508536E-02  (-0.7604599E-02)
 number of electron     252.0000000 magnetization       4.0000007
 augmentation part       14.3990259 magnetization       2.8729718

 DIPCOR: dipole corrections for dipol
 direction  3 min pos     1,
 dipolmoment           0.011205      0.027499     -0.486183 electrons x Angstroem
 Tr[quadrupol]     -6990.428696

 energy correction for charged system         0.000000 eV
 dipol+quadrupol energy correction           -0.006806 eV
 added-field ion interaction          0.416186 eV  (added to PSCEN)


 Free energy of the ion-electron system (eV)
  ---------------------------------------------------
  alpha Z        PSCENC =       108.92031374
  Ewald energy   TEWEN  =     41213.13681908
  -Hartree energ DENC   =    -49945.68194274
  -exchange      EXHF   =       571.65778162
  -V(xc)+E(xc)   XCENC  =       637.34280143
  PAW double counting   =     28063.21733953   -28109.76436308
  entropy T*S    EENTRO =        -0.00000000
  eigenvalues    EBANDS =     -3246.62787815
  atomic energy  EATOM  =     10075.75506885
  ---------------------------------------------------
  free energy    TOTEN  =      -632.04405971 eV

  energy without entropy =     -632.04405971  energy(sigma->0) =     -632.04405971
  exchange ACFDT corr.  =        -0.00000000  see jH, gK, PRB 81, 115126


--------------------------------------------------------------------------------------------------------




--------------------------------------- Iteration      1(  14)  ---------------------------------------


    POTLOK:  cpu time    0.8480: real time    0.8519
    SETDIJ:  cpu time    1.0203: real time    1.0229
    TRIAL :  cpu time  171.1654: real time  171.6423
    CORREC:  cpu time    0.0005: real time    0.0005
    CHARGE:  cpu time    0.7489: real time    0.7523
    --------------------------------------------
      LOOP:  cpu time  173.7849: real time  174.2752

 eigenvalue-minimisations  :     0
 total energy-change (2. order) :-0.7241351E-02  (-0.6561050E-02)
 number of electron     252.0000000 magnetization       4.0000007
 augmentation part       14.4004544 magnetization       2.8673705

 DIPCOR: dipole corrections for dipol
 direction  3 min pos     1,
 dipolmoment           0.011145      0.027353     -0.483599 electrons x Angstroem
 Tr[quadrupol]     -6990.419515

 energy correction for charged system         0.000000 eV
 dipol+quadrupol energy correction           -0.006734 eV
 added-field ion interaction          0.413974 eV  (added to PSCEN)


 Free energy of the ion-electron system (eV)
  ---------------------------------------------------
  alpha Z        PSCENC =       108.91817387
  Ewald energy   TEWEN  =     41213.13681908
  -Hartree energ DENC   =    -49945.48915680
  -exchange      EXHF   =       571.68421956
  -V(xc)+E(xc)   XCENC  =       637.34431251
  PAW double counting   =     28063.63772328   -28110.19420071
  entropy T*S    EENTRO =        -0.00000000
  eigenvalues    EBANDS =     -3246.84426071
  atomic energy  EATOM  =     10075.75506885
  ---------------------------------------------------
  free energy    TOTEN  =      -632.05130106 eV

  energy without entropy =     -632.05130106  energy(sigma->0) =     -632.05130106
  exchange ACFDT corr.  =        -0.00000000  see jH, gK, PRB 81, 115126


--------------------------------------------------------------------------------------------------------




--------------------------------------- Iteration      1(  15)  ---------------------------------------


    POTLOK:  cpu time    0.8509: real time    0.8533
    SETDIJ:  cpu time    0.9876: real time    0.9901
    TRIAL :  cpu time  171.4618: real time  171.9378
    CORREC:  cpu time    0.0005: real time    0.0005
    CHARGE:  cpu time    0.7479: real time    0.7499
    --------------------------------------------
      LOOP:  cpu time  174.0498: real time  174.5372

 eigenvalue-minimisations  :     0
 total energy-change (2. order) :-0.6295577E-02  (-0.5773751E-02)
 number of electron     252.0000000 magnetization       4.0000007
 augmentation part       14.4017519 magnetization       2.8613702

 DIPCOR: dipole corrections for dipol
 direction  3 min pos     1,
 dipolmoment           0.011083      0.027200     -0.480898 electrons x Angstroem
 Tr[quadrupol]     -6990.410555

 energy correction for charged system         0.000000 eV
 dipol+quadrupol energy correction           -0.006659 eV
 added-field ion interaction          0.411662 eV  (added to PSCEN)


 Free energy of the ion-electron system (eV)
  ---------------------------------------------------
  alpha Z        PSCENC =       108.91593670
  Ewald energy   TEWEN  =     41213.13681908
  -Hartree energ DENC   =    -49945.34298943
  -exchange      EXHF   =       571.70936353
  -V(xc)+E(xc)   XCENC  =       637.34638342
  PAW double counting   =     28064.60503568   -28111.17438801
  entropy T*S    EENTRO =        -0.00000000
  eigenvalues    EBANDS =     -3247.00882646
  atomic energy  EATOM  =     10075.75506885
  ---------------------------------------------------
  free energy    TOTEN  =      -632.05759664 eV

  energy without entropy =     -632.05759664  energy(sigma->0) =     -632.05759664
  exchange ACFDT corr.  =        -0.00000000  see jH, gK, PRB 81, 115126


--------------------------------------------------------------------------------------------------------




--------------------------------------- Iteration      1(  16)  ---------------------------------------


    POTLOK:  cpu time    0.8486: real time    0.8510
    SETDIJ:  cpu time    0.9952: real time    0.9978
    TRIAL :  cpu time  171.0990: real time  171.5862
    CORREC:  cpu time    0.0005: real time    0.0005
    CHARGE:  cpu time    0.7495: real time    0.7514
    --------------------------------------------
      LOOP:  cpu time  173.6951: real time  174.1927

 eigenvalue-minimisations  :     0
 total energy-change (2. order) :-0.5572803E-02  (-0.5166496E-02)
 number of electron     252.0000000 magnetization       4.0000007
 augmentation part       14.4026942 magnetization       2.8549069

 DIPCOR: dipole corrections for dipol
 direction  3 min pos     1,
 dipolmoment           0.011019      0.027045     -0.478151 electrons x Angstroem
 Tr[quadrupol]     -6990.401929

 energy correction for charged system         0.000000 eV
 dipol+quadrupol energy correction           -0.006583 eV
 added-field ion interaction          0.409310 eV  (added to PSCEN)


 Free energy of the ion-electron system (eV)
  ---------------------------------------------------
  alpha Z        PSCENC =       108.91366080
  Ewald energy   TEWEN  =     41213.13681908
  -Hartree energ DENC   =    -49945.21145820
  -exchange      EXHF   =       571.73251456
  -V(xc)+E(xc)   XCENC  =       637.34790068
  PAW double counting   =     28065.87218966   -28112.45225277
  entropy T*S    EENTRO =        -0.00000000
  eigenvalues    EBANDS =     -3247.15761210
  atomic energy  EATOM  =     10075.75506885
  ---------------------------------------------------
  free energy    TOTEN  =      -632.06316944 eV

  energy without entropy =     -632.06316944  energy(sigma->0) =     -632.06316944
  exchange ACFDT corr.  =        -0.00000000  see jH, gK, PRB 81, 115126


--------------------------------------------------------------------------------------------------------




--------------------------------------- Iteration      1(  17)  ---------------------------------------


    POTLOK:  cpu time    0.8476: real time    0.8517
    SETDIJ:  cpu time    0.9965: real time    0.9990
    TRIAL :  cpu time  170.7684: real time  171.2467
    CORREC:  cpu time    0.0005: real time    0.0005
    CHARGE:  cpu time    0.7473: real time    0.7493
    --------------------------------------------
      LOOP:  cpu time  173.3617: real time  173.8522

 eigenvalue-minimisations  :     0
 total energy-change (2. order) :-0.5009883E-02  (-0.4685035E-02)
 number of electron     252.0000000 magnetization       4.0000007
 augmentation part       14.4034913 magnetization       2.8482066

 DIPCOR: dipole corrections for dipol
 direction  3 min pos     1,
 dipolmoment           0.010959      0.026896     -0.475526 electrons x Angstroem
 Tr[quadrupol]     -6990.393688

 energy correction for charged system         0.000000 eV
 dipol+quadrupol energy correction           -0.006511 eV
 added-field ion interaction          0.407064 eV  (added to PSCEN)


 Free energy of the ion-electron system (eV)
  ---------------------------------------------------
  alpha Z        PSCENC =       108.91148605
  Ewald energy   TEWEN  =     41213.13681908
  -Hartree energ DENC   =    -49945.07280419
  -exchange      EXHF   =       571.75326357
  -V(xc)+E(xc)   XCENC  =       637.34825969
  PAW double counting   =     28067.15613284   -28113.74143000
  entropy T*S    EENTRO =        -0.00000000
  eigenvalues    EBANDS =     -3247.31497521
  atomic energy  EATOM  =     10075.75506885
  ---------------------------------------------------
  free energy    TOTEN  =      -632.06817933 eV

  energy without entropy =     -632.06817933  energy(sigma->0) =     -632.06817933
  exchange ACFDT corr.  =        -0.00000000  see jH, gK, PRB 81, 115126


--------------------------------------------------------------------------------------------------------




--------------------------------------- Iteration      1(  18)  ---------------------------------------


    POTLOK:  cpu time    0.8493: real time    0.8528
    SETDIJ:  cpu time    0.9891: real time    0.9917
    TRIAL :  cpu time  171.1634: real time  171.6428
    CORREC:  cpu time    0.0005: real time    0.0005
    CHARGE:  cpu time    0.7473: real time    0.7493
    --------------------------------------------
      LOOP:  cpu time  173.7521: real time  174.2427

 eigenvalue-minimisations  :     0
 total energy-change (2. order) :-0.4559444E-02  (-0.4295493E-02)
 number of electron     252.0000000 magnetization       4.0000007
 augmentation part       14.4043377 magnetization       2.8414683

 DIPCOR: dipole corrections for dipol
 direction  3 min pos     1,
 dipolmoment           0.010900      0.026750     -0.472947 electrons x Angstroem
 Tr[quadrupol]     -6990.385429

 energy correction for charged system         0.000000 eV
 dipol+quadrupol energy correction           -0.006440 eV
 added-field ion interaction          0.404856 eV  (added to PSCEN)


 Free energy of the ion-electron system (eV)
  ---------------------------------------------------
  alpha Z        PSCENC =       108.90934894
  Ewald energy   TEWEN  =     41213.13681908
  -Hartree energ DENC   =    -49944.92495162
  -exchange      EXHF   =       571.77229705
  -V(xc)+E(xc)   XCENC  =       637.34807423
  PAW double counting   =     28068.32688949   -28114.91593374
  entropy T*S    EENTRO =        -0.00000000
  eigenvalues    EBANDS =     -3247.48035105
  atomic energy  EATOM  =     10075.75506885
  ---------------------------------------------------
  free energy    TOTEN  =      -632.07273877 eV

  energy without entropy =     -632.07273877  energy(sigma->0) =     -632.07273877
  exchange ACFDT corr.  =        -0.00000000  see jH, gK, PRB 81, 115126


--------------------------------------------------------------------------------------------------------




--------------------------------------- Iteration      1(  19)  ---------------------------------------


    POTLOK:  cpu time    0.8478: real time    0.8521
    SETDIJ:  cpu time    0.9886: real time    0.9911
    TRIAL :  cpu time  171.1181: real time  171.5998
    CORREC:  cpu time    0.0007: real time    0.0007
    CHARGE:  cpu time    0.7481: real time    0.7500
    --------------------------------------------
      LOOP:  cpu time  173.7050: real time  174.1989

 eigenvalue-minimisations  :     0
 total energy-change (2. order) :-0.4192407E-02  (-0.3974308E-02)
 number of electron     252.0000000 magnetization       4.0000007
 augmentation part       14.4051227 magnetization       2.8346433

 DIPCOR: dipole corrections for dipol
 direction  3 min pos     1,
 dipolmoment           0.010840      0.026605     -0.470384 electrons x Angstroem
 Tr[quadrupol]     -6990.377010

 energy correction for charged system         0.000000 eV
 dipol+quadrupol energy correction           -0.006371 eV
 added-field ion interaction          0.402662 eV  (added to PSCEN)


 Free energy of the ion-electron system (eV)
  ---------------------------------------------------
  alpha Z        PSCENC =       108.90722453
  Ewald energy   TEWEN  =     41213.13681908
  -Hartree energ DENC   =    -49944.77516874
  -exchange      EXHF   =       571.79024987
  -V(xc)+E(xc)   XCENC  =       637.34793627
  PAW double counting   =     28069.34570427   -28115.94025789
  entropy T*S    EENTRO =        -0.00000000
  eigenvalues    EBANDS =     -3247.64450741
  atomic energy  EATOM  =     10075.75506885
  ---------------------------------------------------
  free energy    TOTEN  =      -632.07693118 eV

  energy without entropy =     -632.07693118  energy(sigma->0) =     -632.07693118
  exchange ACFDT corr.  =        -0.00000000  see jH, gK, PRB 81, 115126


--------------------------------------------------------------------------------------------------------




--------------------------------------- Iteration      1(  20)  ---------------------------------------


    POTLOK:  cpu time    0.8593: real time    0.8627
    SETDIJ:  cpu time    0.9936: real time    0.9962
    TRIAL :  cpu time  170.9758: real time  171.4629
    CORREC:  cpu time    0.0005: real time    0.0005
    CHARGE:  cpu time    0.7482: real time    0.7501
    --------------------------------------------
      LOOP:  cpu time  173.5796: real time  174.0776

 eigenvalue-minimisations  :     0
 total energy-change (2. order) :-0.3887457E-02  (-0.3706158E-02)
[...]
  energy-cutoff  :      500.00
  volume of cell :     3176.88
      direct lattice vectors                 reciprocal lattice vectors
    12.888400000  0.000000000  0.000000000     0.077589150  0.001159676  0.001853713
    -0.183768974 12.295226737  0.000000000     0.000000000  0.081332376  0.004600226
    -0.462020683 -1.133916932 20.047743297     0.000000000  0.000000000  0.049880926

  length of vectors
    12.888400000 12.296600000 20.085100000     0.077619954  0.081462368  0.049880926


 FORCES acting on ions:
    Electron-Ion                     Ewald-Force                    Non-Local-Force
 -----------------------------------------------------------------------------------------------
   0.488E+01 -.810E+01 0.123E+02   -.510E+01 0.841E+01 -.124E+02   0.213E+00 -.262E+00 0.553E-01
   0.446E+01 -.257E+01 0.172E+02   -.440E+01 0.255E+01 -.172E+02   -.471E-01 -.171E-01 0.405E-01
   0.315E+01 -.402E+01 0.160E+02   -.323E+01 0.405E+01 -.160E+02   0.518E-01 -.191E-01 0.701E-02
   0.635E+01 0.232E+00 0.940E+01   -.650E+01 -.177E+00 -.938E+01   0.129E+00 -.853E-01 -.211E-03
   0.589E+01 0.877E+01 0.106E+02   -.595E+01 -.860E+01 -.106E+02   -.182E-01 -.177E+00 0.438E-01
   0.743E+01 0.103E+02 0.174E+02   -.740E+01 -.105E+02 -.174E+02   -.217E-01 0.316E+00 0.560E-01
   0.253E+01 0.977E+01 0.149E+02   -.241E+01 -.990E+01 -.149E+02   -.697E-01 0.904E-01 0.104E-01
   0.170E+02 0.276E+02 0.103E+02   -.170E+02 -.276E+02 -.103E+02   -.126E-02 -.249E-01 0.827E-01
   0.307E+02 0.571E+02 0.196E+02   -.320E+02 -.601E+02 -.197E+02   0.130E+01 0.318E+01 0.128E+00
   0.182E+02 0.104E+02 0.177E+02   -.186E+02 -.106E+02 -.177E+02   0.351E+00 0.159E+00 -.165E-01
   0.162E+02 0.193E+02 0.196E+02   -.164E+02 -.196E+02 -.196E+02   0.172E+00 0.232E+00 0.615E-01
   0.555E+02 -.255E+02 0.321E+02   -.573E+02 0.281E+02 -.323E+02   0.173E+01 -.262E+01 0.293E+00
   0.155E+02 -.703E+01 0.210E+02   -.156E+02 0.741E+01 -.210E+02   0.139E+00 -.302E+00 0.366E-01
   0.323E+02 -.733E+01 0.229E+02   -.326E+02 0.763E+01 -.229E+02   0.459E+00 -.241E+00 0.177E-01
   0.514E+02 -.387E+02 0.287E+02   -.545E+02 0.388E+02 -.290E+02   0.322E+01 -.138E+00 0.291E+00
   0.212E+02 -.272E+02 0.202E+02   -.217E+02 0.274E+02 -.203E+02   0.462E+00 -.287E+00 0.674E-01
   0.833E+01 -.107E+02 0.186E+02   -.842E+01 0.108E+02 -.186E+02   0.386E-01 -.109E+00 0.426E-01
   0.121E+02 -.148E+02 0.203E+02   -.125E+02 0.148E+02 -.203E+02   0.344E+00 -.595E-01 0.153E-01
   0.549E+01 -.247E+02 0.112E+02   -.554E+01 0.251E+02 -.112E+02   0.927E-01 -.423E+00 -.347E-01
   -.645E+01 0.725E-01 0.268E+01   0.661E+01 -.124E+00 -.267E+01   -.126E+00 0.844E-01 -.169E-01
   0.371E+00 0.953E+01 0.789E+01   -.585E+00 -.966E+01 -.793E+01   0.224E+00 0.149E+00 0.464E-01
   -.484E+00 -.914E+01 0.533E+01   0.705E+00 0.928E+01 -.537E+01   -.224E+00 -.137E+00 0.360E-01
   -.510E+01 0.847E+01 0.662E+01   0.533E+01 -.878E+01 -.667E+01   -.215E+00 0.263E+00 0.335E-01
   -.572E+01 0.249E+02 0.992E+01   0.578E+01 -.253E+02 -.989E+01   -.925E-01 0.432E+00 -.328E-01
   0.298E+02 0.581E+02 0.153E+02   -.319E+02 -.606E+02 -.154E+02   0.215E+01 0.275E+01 0.120E+00
   0.670E+01 0.222E+02 0.114E+02   -.678E+01 -.226E+02 -.115E+02   0.113E+00 0.264E+00 0.576E-01
   -.214E+02 0.272E+02 0.195E+02   0.219E+02 -.274E+02 -.196E+02   -.470E+00 0.291E+00 0.633E-01
   -.519E+02 0.384E+02 0.300E+02   0.551E+02 -.385E+02 -.303E+02   -.322E+01 0.132E+00 0.295E+00
   -.558E+02 0.249E+02 0.297E+02   0.576E+02 -.275E+02 -.299E+02   -.172E+01 0.261E+01 0.286E+00
   -.307E+02 -.574E+02 0.122E+02   0.319E+02 0.604E+02 -.123E+02   -.130E+01 -.317E+01 0.870E-01
   -.169E+02 -.275E+02 0.173E+01   0.170E+02 0.275E+02 -.179E+01   0.999E-03 0.284E-01 0.485E-01
   -.687E+01 -.219E+02 0.864E+01   0.695E+01 0.222E+02 -.870E+01   -.114E+00 -.257E+00 0.612E-01
   -.302E+02 -.579E+02 0.872E+01   0.322E+02 0.605E+02 -.878E+01   -.216E+01 -.274E+01 0.665E-01
   -.595E+01 -.860E+01 0.193E+01   0.601E+01 0.843E+01 -.199E+01   0.127E-01 0.179E+00 0.316E-01
   0.272E+01 -.416E+01 0.161E+02   -.273E+01 0.423E+01 -.161E+02   0.253E-01 -.397E-01 0.371E-01
   -.317E+01 0.424E+01 0.100E+02   0.325E+01 -.426E+01 -.100E+02   -.568E-01 0.979E-02 -.168E-02
   -.445E+01 0.278E+01 0.110E+02   0.440E+01 -.276E+01 -.111E+02   0.548E-01 0.971E-02 0.267E-01
   -.246E+01 0.427E+01 0.179E+02   0.247E+01 -.433E+01 -.180E+02   -.312E-01 0.424E-01 0.474E-01
   -.182E+01 0.447E+01 0.169E+02   0.181E+01 -.454E+01 -.169E+02   -.295E-01 0.628E-01 0.207E-01
   -.123E+02 0.147E+02 0.178E+02   0.127E+02 -.147E+02 -.178E+02   -.345E+00 0.693E-01 0.217E-02
   -.830E+01 0.108E+02 0.151E+02   0.839E+01 -.109E+02 -.151E+02   -.447E-01 0.110E+00 0.358E-01
   -.309E+01 0.863E+01 0.174E+02   0.315E+01 -.870E+01 -.174E+02   -.400E-01 0.978E-01 0.361E-01
   -.444E+01 0.814E+01 0.168E+02   0.450E+01 -.815E+01 -.168E+02   -.335E-01 0.249E-01 0.280E-02
   -.322E+02 0.712E+01 0.204E+02   0.326E+02 -.741E+01 -.204E+02   -.455E+00 0.231E+00 0.189E-01
   -.153E+02 0.694E+01 0.193E+02   0.154E+02 -.732E+01 -.194E+02   -.134E+00 0.293E+00 0.437E-01
   0.405E+01 0.403E+00 0.162E+02   -.414E+01 -.413E+00 -.163E+02   0.170E+00 -.537E-01 0.348E-01
   -.378E+01 -.426E+00 0.149E+02   0.387E+01 0.443E+00 -.149E+02   -.169E+00 0.473E-01 0.140E-01
   -.160E+02 -.194E+02 0.134E+02   0.162E+02 0.197E+02 -.135E+02   -.159E+00 -.224E+00 0.485E-01
   -.180E+02 -.105E+02 0.144E+02   0.184E+02 0.107E+02 -.144E+02   -.353E+00 -.164E+00 -.900E-02
   0.459E+01 -.818E+01 0.167E+02   -.465E+01 0.821E+01 -.168E+02   0.348E-01 -.266E-01 0.199E-01
   0.330E+01 -.879E+01 0.151E+02   -.335E+01 0.888E+01 -.151E+02   0.507E-01 -.910E-01 0.256E-01
   -.253E+01 -.970E+01 0.705E+01   0.240E+01 0.984E+01 -.704E+01   0.587E-01 -.872E-01 -.320E-02
   -.722E+01 -.103E+02 0.115E+02   0.719E+01 0.106E+02 -.115E+02   0.280E-01 -.301E+00 0.500E-01
   0.196E+01 -.431E+01 0.172E+02   -.194E+01 0.438E+01 -.172E+02   0.326E-01 -.631E-01 0.310E-01
   0.252E+02 0.423E+02 0.326E+02   -.522E+01 -.415E+02 -.314E+02   -.190E+02 -.920E+00 -.112E+01
   0.248E+02 0.427E+02 0.274E+02   -.346E+02 -.248E+02 -.262E+02   0.927E+01 -.171E+02 -.108E+01
   -.253E+02 -.432E+02 0.264E+02   0.529E+01 0.424E+02 -.252E+02   0.190E+02 0.925E+00 -.110E+01
   -.257E+02 -.431E+02 0.214E+02   0.356E+02 0.251E+02 -.201E+02   -.927E+01 0.172E+02 -.119E+01
   -.122E+01 -.225E+01 0.128E+02   0.127E+01 0.233E+01 -.145E+02   -.239E-01 -.345E-01 -.510E-01
   0.295E+01 0.332E+01 -.943E+03   -.287E+01 -.318E+01 0.937E+03   -.860E-01 -.138E+00 0.684E+01
 -----------------------------------------------------------------------------------------------
   0.216E+00 0.447E+00 -.536E+01   0.318E-12 0.249E-12 0.114E-12   -.822E-01 -.123E+00 0.516E+01
 
 
 POSITION                                       TOTAL-FORCE (eV/Angst)
 -----------------------------------------------------------------------------------
      2.64178     -0.52816      9.97098        -0.004779      0.029044      0.008139
      0.49788      0.68736      9.92704         0.015925     -0.041706      0.026479
      1.21161     -0.54089      9.93687        -0.026509      0.003524      0.015975
      3.35877      0.70883      9.99143        -0.014318     -0.044817      0.015090
      2.65652      1.96546      9.99142        -0.080770     -0.025401      0.000428
      0.48110      3.14721      9.94277         0.005532      0.065584      0.011178
      1.21958      1.92863      9.95003         0.047729     -0.039306      0.024279
      3.37505      3.22598     10.03893        -0.024250     -0.023434      0.012942
      2.61113      4.46380     10.03397         0.145908      0.363093      0.038706
      0.39637      5.59911      9.95707        -0.049284     -0.010023     -0.002596
      1.17217      4.39709      9.96911        -0.058943     -0.063912      0.018069
      2.46394      6.85706     10.02036         0.021460     -0.156396      0.058993
      0.32977      8.06974      9.93994         0.027048      0.064827      0.011055
      1.06218      6.84828      9.96470         0.124125      0.033772      0.000566
      3.16185      8.09479     10.03611         0.212502     -0.001526      0.048267
      2.44809      9.30917      9.98346        -0.025272     -0.053017      0.000111
      0.30598     10.52298      9.92674        -0.048030      0.009232      0.017211
      1.02581      9.30036      9.94268        -0.023904     -0.040242      0.007837
      3.17225     10.52987      9.99788         0.045737     -0.049706     -0.006430
      6.74450     11.67154     10.02411         0.020247      0.036776     -0.007747
      4.78572      0.67108     10.01150         0.015144      0.025238     -0.000506
      5.31733     11.70881     10.02401        -0.012391     -0.016527     -0.008096
      7.64542      0.61325      9.99869         0.006131     -0.037839     -0.011723
      6.93088      1.85006     10.00619        -0.045001      0.065065     -0.007571
      4.82241      3.18689     10.05925         0.225345      0.335386      0.037191
      5.50463      1.90729     10.02137         0.047606     -0.085392      0.008046
      7.65512      3.07097      9.99034         0.011601      0.055373      0.005460
      6.94098      4.28571     10.03558        -0.214017     -0.007875      0.063036
      7.63883      5.52330     10.03423        -0.022728      0.171145      0.055992
      7.49189      7.91615     10.06906        -0.156488     -0.358132      0.017667
      6.72799      9.15431     10.07928         0.027243      0.026210     -0.012703
      4.59825     10.47278     10.03311        -0.045137      0.082384      0.000844
      5.28019      9.19340     10.08557        -0.232294     -0.338934      0.005349
      7.44708     10.41490     10.03503         0.073107      0.021848     -0.021231
     11.04107     11.72046      9.92672         0.012546      0.016075      0.025822
      9.07575      0.62620      9.96589         0.014928     -0.019658      0.002003
      9.60539     11.69316      9.95775         0.000664      0.027228      0.003669
     11.95076      0.65978      9.91756        -0.031117     -0.012466      0.033426
     11.22575      1.88134      9.92365        -0.042605     -0.012036      0.013660
      9.07729      3.07958      9.95538         0.029950      0.063160      0.001982
      9.79735      1.85715      9.94274         0.039461     -0.005120      0.001056
     11.93576      3.12004      9.92762         0.012545      0.022738      0.008256
     11.19201      4.33435      9.93594         0.023993      0.005980     -0.001483
      9.04064      5.53238      9.97986        -0.120979     -0.045263      0.003753
      9.77291      4.31092      9.94893        -0.025667     -0.080753      0.006539
     11.86823      5.57915      9.94296         0.084400     -0.078253      0.003905
     11.12282      6.80158      9.94983        -0.083294      0.067861     -0.003659
      8.93058      7.98291     10.00182         0.067108      0.074620      0.003222
      9.70650      6.78144      9.97651         0.046172      0.002875     -0.002877
     11.79905      8.04613      9.93882        -0.023050     -0.006325      0.005324
     11.05509      9.25996      9.94142         0.000701     -0.005904      0.007017
      8.88417     10.45163      9.99069        -0.060966      0.042001      0.006173
      9.62183      9.23256      9.97519        -0.005677     -0.046802      0.000958
     11.76550     10.49885      9.92494         0.050523      0.001300      0.019546
      3.22631      5.70458     10.09573        -0.662796     -0.205409     -0.017300
      5.56602      4.35567     10.11385         0.238544     -0.722625      0.000170
      6.87644      6.67548     10.11718         0.660345      0.186666     -0.020205
      4.53559      8.02486     10.12833        -0.219122      0.709946     -0.010380
      5.05017      6.18866     10.32146         0.008325      0.027617     -1.027447
      5.03093      6.15972     12.48461        -0.003209     -0.001767      0.506560
 -----------------------------------------------------------------------------------
    total drift:                                0.129422      0.316756      0.011069


--------------------------------------------------------------------------------------------------------



  FREE ENERGIE OF THE ION-ELECTRON SYSTEM (eV)
  ---------------------------------------------------
  free  energy   TOTEN  =      -632.14315123 eV

  energy  without entropy=     -632.14315123  energy(sigma->0) =     -632.14315123
 


--------------------------------------------------------------------------------------------------------


    POTLOK:  cpu time    1.9198: real time    1.9270


--------------------------------------------------------------------------------------------------------


 stress matrix after NEB project (eV)
    -40.39444     -3.58446     -0.00681
     -3.58643    -39.59607     -0.00885
     -0.00760     -0.01027      0.52987
  FORCES: max atom, RMS     1.027851    0.270627
  FORCE total and by dimension    2.096270    1.027447
  Stress total and by dimension   56.793938   40.394438
 writing wavefunctions
     LOOP+:  cpu time14819.8424: real time14868.4998
 vacuum level on the upper side and lower side of the slab         1.258         1.708
    4ORBIT:  cpu time    0.0000: real time    0.0000
 


 total charge     
 
# of ion       s       p       d       tot
------------------------------------------
    1        0.864   1.768   0.000   2.632
    2        0.865   1.762   0.000   2.627
    3        0.866   1.776   0.000   2.643
    4        0.864   1.761   0.000   2.625
    5        0.858   1.735   0.000   2.593
    6        0.865   1.766   0.000   2.632
    7        0.862   1.763   0.000   2.626
    8        0.849   1.746   0.000   2.594
    9        0.852   1.703   0.000   2.555
   10        0.870   1.782   0.000   2.652
   11        0.863   1.764   0.000   2.628
   12        0.868   1.774   0.000   2.641
   13        0.869   1.792   0.000   2.661
   14        0.874   1.800   0.000   2.674
   15        0.868   1.771   0.000   2.639
   16        0.872   1.795   0.000   2.667
   17        0.867   1.775   0.000   2.643
   18        0.870   1.792   0.000   2.662
   19        0.869   1.771   0.000   2.640
   20        0.864   1.761   0.000   2.624
   21        0.862   1.756   0.000   2.618
   22        0.862   1.756   0.000   2.618
   23        0.864   1.768   0.000   2.632
   24        0.869   1.771   0.000   2.640
   25        0.852   1.703   0.000   2.555
   26        0.862   1.760   0.000   2.622
   27        0.872   1.795   0.000   2.667
   28        0.868   1.771   0.000   2.639
   29        0.868   1.774   0.000   2.641
   30        0.852   1.703   0.000   2.555
   31        0.849   1.745   0.000   2.594
   32        0.862   1.760   0.000   2.622
   33        0.852   1.703   0.000   2.555
   34        0.858   1.735   0.000   2.593
   35        0.865   1.768   0.000   2.633
   36        0.866   1.777   0.000   2.643
   37        0.865   1.762   0.000   2.627
   38        0.865   1.768   0.000   2.633
   39        0.868   1.775   0.000   2.642
   40        0.870   1.792   0.000   2.662
   41        0.867   1.776   0.000   2.643
   42        0.866   1.770   0.000   2.635
   43        0.871   1.783   0.000   2.654
   44        0.874   1.800   0.000   2.674
   45        0.869   1.792   0.000   2.661
   46        0.868   1.788   0.000   2.655
   47        0.868   1.788   0.000   2.656
   48        0.863   1.765   0.000   2.628
   49        0.870   1.782   0.000   2.653
   50        0.871   1.783   0.000   2.654
   51        0.866   1.770   0.000   2.635
   52        0.862   1.763   0.000   2.625
   53        0.866   1.766   0.000   2.632
   54        0.867   1.774   0.000   2.642
   55        1.231   2.662   0.000   3.893
   56        1.234   2.657   0.000   3.890
   57        1.231   2.662   0.000   3.893
   58        1.234   2.657   0.000   3.890
   59        0.489   0.692   6.475   7.656
   60        0.481   0.072   6.255   6.808
--------------------------------------------------
tot         52.599 106.798  12.731 172.128
 


 magnetization (x)
 
# of ion       s       p       d       tot
------------------------------------------
    1        0.000   0.000   0.000   0.001
    2       -0.000  -0.000   0.000  -0.000
    3        0.000   0.000   0.000   0.000
    4        0.000   0.000   0.000   0.001
    5       -0.000  -0.001   0.000  -0.001
    6       -0.000  -0.001   0.000  -0.001
    7        0.000   0.001   0.000   0.002
    8        0.000   0.006   0.000   0.006
    9       -0.001  -0.006   0.000  -0.006
   10       -0.000  -0.002   0.000  -0.002
   11        0.000   0.002   0.000   0.002
   12       -0.000  -0.002   0.000  -0.002
   13        0.000   0.001   0.000   0.001
   14        0.000   0.001   0.000   0.001
   15       -0.000  -0.003   0.000  -0.003
   16        0.000   0.001   0.000   0.001
   17        0.000   0.000   0.000   0.000
   18        0.000   0.000   0.000   0.000
   19       -0.000  -0.003   0.000  -0.003
   20        0.000   0.000   0.000   0.000
   21       -0.000  -0.000   0.000  -0.000
   22       -0.000  -0.000   0.000  -0.000
   23        0.000   0.001   0.000   0.001
   24       -0.000  -0.003   0.000  -0.003
   25       -0.001  -0.006   0.000  -0.006
   26        0.000   0.002   0.000   0.002
   27        0.000   0.001   0.000   0.001
   28       -0.000  -0.003   0.000  -0.004
   29       -0.000  -0.001   0.000  -0.002
   30       -0.001  -0.006   0.000  -0.006
   31        0.000   0.005   0.000   0.006
   32        0.000   0.002   0.000   0.002
   33       -0.001  -0.006   0.000  -0.006
   34       -0.000  -0.001   0.000  -0.001
   35        0.000   0.000   0.000   0.000
   36       -0.000   0.000   0.000   0.000
   37       -0.000  -0.000   0.000  -0.000
   38        0.000   0.000   0.000   0.000
   39       -0.000   0.000   0.000   0.000
   40       -0.000   0.000   0.000   0.000
   41        0.000   0.000   0.000   0.000
   42        0.000   0.001   0.000   0.001
   43       -0.000  -0.001   0.000  -0.001
   44        0.000   0.001   0.000   0.001
   45        0.000   0.001   0.000   0.001
   46        0.000   0.001   0.000   0.001
   47        0.000   0.001   0.000   0.001
   48        0.000   0.002   0.000   0.002
   49       -0.000  -0.002   0.000  -0.002
   50       -0.000  -0.001   0.000  -0.001
   51        0.000   0.000   0.000   0.000
   52        0.000   0.001   0.000   0.001
   53       -0.000  -0.001   0.000  -0.001
   54        0.000   0.000   0.000   0.000
   55        0.002   0.016   0.000   0.018
   56        0.002   0.014   0.000   0.016
   57        0.002   0.015   0.000   0.017
   58        0.002   0.013   0.000   0.015
   59       -0.018   0.007   0.316   0.305
   60        0.187  -0.018   3.087   3.256
--------------------------------------------------
tot          0.174   0.032   3.403   3.610
 

 total amount of memory used by VASP MPI-rank0   151337. kBytes
=======================================================================

   base      :      30000. kBytes
   nonl-proj :       3731. kBytes
   fftplans  :      11188. kBytes
   grid      :      27138. kBytes
   one-center:         62. kBytes
   HF        :         23. kBytes
   nonlr-proj:      15943. kBytes
   wavefun   :      63252. kBytes
 
  
  
 General timing and accounting informations for this job:
 ========================================================
  
                  Total CPU time used (sec):    14866.905
                            User time (sec):    14813.943
                          System time (sec):       52.962
                         Elapsed time (sec):    14922.614
  
                   Maximum memory used (kb):      393076.
                   Average memory used (kb):           0.
  
                          Minor page faults:      1103880
                          Major page faults:            1
                 Voluntary context switches:       247900
