 vasp.5.4.4.18Apr17-6-g9f103f2a35 (build Feb 25 2019 10:51:38) complex          
  
 executed on             LinuxIFC date 2021.08.09  02:38:09
 running on   32 total cores
 distrk:  each k-point on   32 cores,    1 groups
 distr:  one band on NCORES_PER_BAND=  32 cores,    1 groups


--------------------------------------------------------------------------------------------------------


 INCAR:
 POTCAR:    PAW_PBE C 08Apr2002                   
 POTCAR:    PAW_PBE N 08Apr2002                   
 POTCAR:    PAW_PBE Fe 06Sep2000                  
 POTCAR:    PAW_PBE Cr 06Sep2000                  

 ----------------------------------------------------------------------------- 
|                                                                             |
|           W    W    AA    RRRRR   N    N  II  N    N   GGGG   !!!           |
|           W    W   A  A   R    R  NN   N  II  NN   N  G    G  !!!           |
|           W    W  A    A  R    R  N N  N  II  N N  N  G       !!!           |
|           W WW W  AAAAAA  RRRRR   N  N N  II  N  N N  G  GGG   !            |
|           WW  WW  A    A  R   R   N   NN  II  N   NN  G    G                |
|           W    W  A    A  R    R  N    N  II  N    N   GGGG   !!!           |
|                                                                             |
|      For optimal performance we recommend to set                            |
|        NCORE= 4 - approx SQRT( number of cores)                             |
|      NCORE specifies how many cores store one orbital (NPAR=cpu/NCORE).     |
|      This setting can  greatly improve the performance of VASP for DFT.     |
|      The default,   NCORE=1            might be grossly inefficient         |
|      on modern multi-core architectures or massively parallel machines.     |
|      Do your own testing !!!!                                               |
|      Unfortunately you need to use the default for GW and RPA calculations. |
|      (for HF NCORE is supported but not extensively tested yet)             |
|                                                                             |
 ----------------------------------------------------------------------------- 

 POTCAR:    PAW_PBE C 08Apr2002                   
   VRHFIN =C: s2p2                                                              
   LEXCH  = PE                                                                  
   EATOM  =   147.1560 eV,   10.8157 Ry                                         
                                                                                
   TITEL  = PAW_PBE C 08Apr2002                                                 
   LULTRA =        F    use ultrasoft PP ?                                      
   IUNSCR =        1    unscreen: 0-lin 1-nonlin 2-no                           
   RPACOR =    1.200    partial core radius                                     
   POMASS =   12.011; ZVAL   =    4.000    mass and valenz                      
   RCORE  =    1.500    outmost cutoff radius                                   
   RWIGS  =    1.630; RWIGS  =    0.863    wigner-seitz radius (au A)           
   ENMAX  =  400.000; ENMIN  =  300.000 eV                                      
   ICORE  =        2    local potential                                         
   LCOR   =        T    correct aug charges                                     
   LPAW   =        T    paw PP                                                  
   EAUG   =  644.873                                                            
   DEXC   =    0.000                                                            
   RMAX   =    1.529    core radius for proj-oper                               
   RAUG   =    1.300    factor for augmentation sphere                          
   RDEP   =    1.501    radius for radial grids                                 
   RDEPT  =    1.300    core radius for aug-charge                              
                                                                                
   Atomic configuration                                                         
    4 entries                                                                   
     n  l   j            E        occ.                                          
     1  0  0.50      -273.3789   2.0000                                         
     2  0  0.50       -13.7508   2.0000                                         
     2  1  0.50        -5.2854   2.0000                                         
     3  2  1.50        -5.4423   0.0000                                         
   Description                                                                  
     l       E           TYP  RCUT    TYP  RCUT                                 
     0    -13.7508458     23  1.200                                             
     0     -8.2022199     23  1.200                                             
     1     -5.2854383     23  1.500                                             
     1     34.0145650     23  1.500                                             
     2     -5.4423304      7  1.500                                             
  local pseudopotential read in
  partial core-charges read in
  partial kinetic energy density read in
  atomic valenz-charges read in
  non local Contribution for L=           0  read in
    real space projection operators read in
  non local Contribution for L=           0  read in
    real space projection operators read in
  non local Contribution for L=           1  read in
    real space projection operators read in
  non local Contribution for L=           1  read in
    real space projection operators read in
    PAW grid and wavefunctions read in
 
   number of l-projection  operators is LMAX  =           4
   number of lm-projection operators is LMMAX =           8
 
 POTCAR:    PAW_PBE N 08Apr2002                   
   VRHFIN =N: s2p3                                                              
   LEXCH  = PE                                                                  
   EATOM  =   264.5486 eV,   19.4438 Ry                                         
                                                                                
   TITEL  = PAW_PBE N 08Apr2002                                                 
   LULTRA =        F    use ultrasoft PP ?                                      
   IUNSCR =        1    unscreen: 0-lin 1-nonlin 2-no                           
   RPACOR =    1.200    partial core radius                                     
   POMASS =   14.001; ZVAL   =    5.000    mass and valenz                      
   RCORE  =    1.500    outmost cutoff radius                                   
   RWIGS  =    1.400; RWIGS  =    0.741    wigner-seitz radius (au A)           
   ENMAX  =  400.000; ENMIN  =  300.000 eV                                      
   ICORE  =        2    local potential                                         
   LCOR   =        T    correct aug charges                                     
   LPAW   =        T    paw PP                                                  
   EAUG   =  627.112                                                            
   DEXC   =    0.000                                                            
   RMAX   =    1.529    core radius for proj-oper                               
   RAUG   =    1.300    factor for augmentation sphere                          
   RDEP   =    1.514    radius for radial grids                                 
   RDEPT  =    1.338    core radius for aug-charge                              
                                                                                
   Atomic configuration                                                         
    4 entries                                                                   
     n  l   j            E        occ.                                          
     1  0  0.50      -384.7179   2.0000                                         
     2  0  0.50       -18.5828   2.0000                                         
     2  1  0.50        -7.0898   3.0000                                         
     3  2  1.50        -6.8029   0.0000                                         
   Description                                                                  
     l       E           TYP  RCUT    TYP  RCUT                                 
     0    -18.5828119     23  1.200                                             
     0    -13.5018863     23  1.200                                             
     1     -7.0897853     23  1.500                                             
     1      9.5240782     23  1.500                                             
     2     -6.8029130      7  1.500                                             
  local pseudopotential read in
  partial core-charges read in
  partial kinetic energy density read in
  atomic valenz-charges read in
  non local Contribution for L=           0  read in
    real space projection operators read in
  non local Contribution for L=           0  read in
    real space projection operators read in
  non local Contribution for L=           1  read in
    real space projection operators read in
  non local Contribution for L=           1  read in
    real space projection operators read in
    PAW grid and wavefunctions read in
 
   number of l-projection  operators is LMAX  =           4
   number of lm-projection operators is LMMAX =           8
 
 POTCAR:    PAW_PBE Fe 06Sep2000                  
   VRHFIN =Fe:  d7 s1                                                           
   LEXCH  = PE                                                                  
   EATOM  =   594.3153 eV,   43.6809 Ry                                         
                                                                                
   TITEL  = PAW_PBE Fe 06Sep2000                                                
   LULTRA =        F    use ultrasoft PP ?                                      
   IUNSCR =        1    unscreen: 0-lin 1-nonlin 2-no                           
   RPACOR =    2.000    partial core radius                                     
   POMASS =   55.847; ZVAL   =    8.000    mass and valenz                      
   RCORE  =    2.300    outmost cutoff radius                                   
   RWIGS  =    2.460; RWIGS  =    1.302    wigner-seitz radius (au A)           
   ENMAX  =  267.882; ENMIN  =  200.911 eV                                      
   RCLOC  =    1.701    cutoff for local pot                                    
   LCOR   =        T    correct aug charges                                     
   LPAW   =        T    paw PP                                                  
   EAUG   =  511.368                                                            
   DEXC   =    0.000                                                            
   RMAX   =    2.356    core radius for proj-oper                               
   RAUG   =    1.300    factor for augmentation sphere                          
   RDEP   =    2.442    radius for radial grids                                 
   RDEPT  =    1.890    core radius for aug-charge                              
                                                                                
   Atomic configuration                                                         
    9 entries                                                                   
     n  l   j            E        occ.                                          
     1  0  0.50     -6993.8440   2.0000                                         
     2  0  0.50      -814.6047   2.0000                                         
     2  1  1.50      -693.3689   6.0000                                         
     3  0  0.50       -89.4732   2.0000                                         
     3  1  1.50       -55.6373   6.0000                                         
     3  2  2.50        -3.8151   7.0000                                         
     4  0  0.50        -4.2551   1.0000                                         
     4  1  1.50        -3.4015   0.0000                                         
     4  3  2.50        -1.3606   0.0000                                         
   Description                                                                  
     l       E           TYP  RCUT    TYP  RCUT                                 
     2     -3.8151135     23  2.300                                             
     2     -5.1756961     23  2.300                                             
     0     -4.2550963     23  2.300                                             
     0      7.2035603     23  2.300                                             
     1     -2.7211652     23  2.300                                             
     1     18.4316424     23  2.300                                             
  local pseudopotential read in
  partial core-charges read in
  partial kinetic energy density read in
  atomic valenz-charges read in
  non local Contribution for L=           2  read in
    real space projection operators read in
  non local Contribution for L=           2  read in
    real space projection operators read in
  non local Contribution for L=           0  read in
    real space projection operators read in
  non local Contribution for L=           0  read in
    real space projection operators read in
  non local Contribution for L=           1  read in
    real space projection operators read in
  non local Contribution for L=           1  read in
    real space projection operators read in
    PAW grid and wavefunctions read in
 
   number of l-projection  operators is LMAX  =           6
   number of lm-projection operators is LMMAX =          18
 
 POTCAR:    PAW_PBE Cr 06Sep2000                  
   VRHFIN =Cr : d5 s1                                                           
   LEXCH  = PE                                                                  
   EATOM  =   276.8859 eV,   20.3505 Ry                                         
                                                                                
   TITEL  = PAW_PBE Cr 06Sep2000                                                
   LULTRA =        F    use ultrasoft PP ?                                      
   IUNSCR =        1    unscreen: 0-lin 1-nonlin 2-no                           
   RPACOR =    2.080    partial core radius                                     
   POMASS =   51.996; ZVAL   =    6.000    mass and valenz                      
   RCORE  =    2.500    outmost cutoff radius                                   
   RWIGS  =    2.500; RWIGS  =    1.323    wigner-seitz radius (au A)           
   ENMAX  =  227.080; ENMIN  =  170.310 eV                                      
   RCLOC  =    1.721    cutoff for local pot                                    
   LCOR   =        T    correct aug charges                                     
   LPAW   =        T    paw PP                                                  
   EAUG   =  402.108                                                            
   DEXC   =    0.000                                                            
   RMAX   =    2.552    core radius for proj-oper                               
   RAUG   =    1.300    factor for augmentation sphere                          
   RDEP   =    2.609    radius for radial grids                                 
   RDEPT  =    2.065    core radius for aug-charge                              
                                                                                
   Atomic configuration                                                         
    9 entries                                                                   
     n  l   j            E        occ.                                          
     1  0  0.50     -5880.4963   2.0000                                         
     2  0  0.50      -667.0865   2.0000                                         
     2  1  1.50      -560.6250   6.0000                                         
     3  0  0.50       -73.9860   2.0000                                         
     3  1  1.50       -45.4378   6.0000                                         
     3  2  2.50        -2.9137   5.0000                                         
     4  0  0.50        -4.0071   1.0000                                         
     4  1  0.50        -1.2789   0.0000                                         
     4  3  2.50        -1.3606   0.0000                                         
   Description                                                                  
     l       E           TYP  RCUT    TYP  RCUT                                 
     2     -2.9136677     23  2.500                                             
     2     -4.2742503     23  2.500                                             
     0     -4.0071322     23  2.500                                             
     0      9.4498801     23  2.500                                             
     1     -5.4423304     23  2.500                                             
     1     27.2116520     23  2.500                                             
  local pseudopotential read in
  partial core-charges read in
  partial kinetic energy density read in
  atomic valenz-charges read in
  non local Contribution for L=           2  read in
    real space projection operators read in
  non local Contribution for L=           2  read in
    real space projection operators read in
  non local Contribution for L=           0  read in
    real space projection operators read in
  non local Contribution for L=           0  read in
    real space projection operators read in
  non local Contribution for L=           1  read in
    real space projection operators read in
  non local Contribution for L=           1  read in
    real space projection operators read in
    PAW grid and wavefunctions read in
 
   number of l-projection  operators is LMAX  =           6
   number of lm-projection operators is LMMAX =          18
 

 ----------------------------------------------------------------------------- 
|                                                                             |
|  ADVICE TO THIS USER RUNNING 'VASP/VAMP'   (HEAR YOUR MASTER'S VOICE ...):  |
|                                                                             |
|      You have a (more or less) 'large supercell' and for larger cells       |
|      it might be more efficient to use real space projection opertators     |
|      So try LREAL= Auto  in the INCAR   file.                               |
|      Mind:          For very  accurate calculation you might also keep the  |
|      reciprocal projection scheme          (i.e. LREAL=.FALSE.)             |
|                                                                             |
 ----------------------------------------------------------------------------- 

  PAW_PBE C 08Apr2002                   :
 energy of atom  1       EATOM= -147.1560
 kinetic energy error for atom=    0.0076 (will be added to EATOM!!)
  PAW_PBE N 08Apr2002                   :
 energy of atom  2       EATOM= -264.5486
 kinetic energy error for atom=    0.0138 (will be added to EATOM!!)
  PAW_PBE Fe 06Sep2000                  :
 energy of atom  3       EATOM= -594.3153
 kinetic energy error for atom=    0.0026 (will be added to EATOM!!)
  PAW_PBE Cr 06Sep2000                  :
 energy of atom  4       EATOM= -276.8859
 kinetic energy error for atom=    0.0012 (will be added to EATOM!!)
 
 
 POSCAR:  C  N Fe Cr                             
  positions in cartesian coordinates
  No initial velocities read in
 exchange correlation table for  LEXCH =        8
   RHO(1)=    0.500       N(1)  =     2000
   RHO(2)=  100.500       N(2)  =     4000

 VTST: version 3.2, (02/03/18)

 CHAIN: initializing optimizer
 
 OPT: Using VASP Conjugate-Gradient optimizer
 CHAIN: Read ICHAIN            0
 
 POSCAR:  C  N Fe Cr                             
  positions in cartesian coordinates
  No initial velocities read in
 


--------------------------------------------------------------------------------------------------------


 ion  position               nearest neighbor table
   1  0.225  0.000  0.499-  18 1.44   4 1.44   3 1.46
   2  0.056  0.099  0.502-   3 1.43   7 1.43  33 1.44
   3  0.113  0.000  0.501-   2 1.43  16 1.43   1 1.46
   4  0.280  0.102  0.499-   1 1.44   5 1.45  20 1.46
   5  0.222  0.202  0.498-  50 1.42   7 1.45   4 1.45
   6  0.053  0.299  0.503-  10 1.42  37 1.43   7 1.44
   7  0.111  0.200  0.501-   2 1.43   6 1.44   5 1.45
   8  0.212  0.400  0.494-  10 1.41  50 1.42  11 1.43
   9  0.050  0.500  0.504-  41 1.41  14 1.43  10 1.43
  10  0.104  0.400  0.501-   8 1.41   6 1.42   9 1.43
  11  0.265  0.501  0.485-  56 1.34   8 1.43  12 1.43
  12  0.212  0.601  0.493-  51 1.41  14 1.41  11 1.43
  13  0.052  0.701  0.502-  14 1.41  17 1.43  45 1.43
  14  0.104  0.601  0.501-  12 1.41  13 1.41   9 1.43
  15  0.222  0.798  0.495-  51 1.43  18 1.45  17 1.46
  16  0.056  0.900  0.501-  17 1.43   3 1.43  49 1.44
  17  0.111  0.800  0.500-  16 1.43  13 1.43  15 1.46
  18  0.279  0.899  0.497-   1 1.44  28 1.45  15 1.45
  19  0.557  0.000  0.501-  22 1.43  29 1.43  21 1.44
  20  0.392  0.104  0.500-  52 1.44  21 1.45   4 1.46
  21  0.446  0.001  0.500-  19 1.44  20 1.45  28 1.45
  22  0.613  0.100  0.503-  23 1.43  19 1.43  31 1.44
  23  0.559  0.200  0.503-  22 1.43  52 1.43  24 1.45
  24  0.616  0.301  0.505-  55 1.37  35 1.42  23 1.45
  25  0.611  0.496  0.504-  55 1.39  53 1.44  39 1.45
  26  0.613  0.697  0.502-  53 1.42  43 1.43  27 1.47
  27  0.557  0.801  0.499-  54 1.42  29 1.43  26 1.47
  28  0.391  0.899  0.497-  54 1.43  21 1.45  18 1.45
  29  0.613  0.900  0.501-  27 1.43  19 1.43  47 1.44
  30  0.890  1.000  0.503-  33 1.43  49 1.43  32 1.44
  31  0.724  0.099  0.504-  36 1.42  32 1.43  22 1.44
  32  0.779  0.999  0.503-  47 1.42  31 1.43  30 1.44
  33  0.946  0.099  0.503-  30 1.43  34 1.43   2 1.44
  34  0.889  0.199  0.505-  37 1.42  36 1.43  33 1.43
  35  0.725  0.299  0.506-  24 1.42  40 1.42  36 1.43
  36  0.779  0.198  0.505-  31 1.42  34 1.43  35 1.43
  37  0.943  0.299  0.506-  34 1.42   6 1.43  38 1.43
  38  0.888  0.399  0.507-  41 1.42  40 1.42  37 1.43
  39  0.722  0.499  0.506-  40 1.43  44 1.43  25 1.45
  40  0.778  0.399  0.507-  35 1.42  38 1.42  39 1.43
  41  0.941  0.500  0.506-   9 1.41  38 1.42  42 1.43
  42  0.887  0.600  0.506-  41 1.43  45 1.43  44 1.43
  43  0.723  0.700  0.504-  44 1.42  48 1.43  26 1.43
  44  0.777  0.600  0.506-  43 1.42  42 1.43  39 1.43
  45  0.942  0.701  0.504-  46 1.42  42 1.43  13 1.43
  46  0.888  0.801  0.503-  45 1.42  49 1.43  48 1.43
  47  0.723  0.900  0.502-  32 1.42  48 1.43  29 1.44
  48  0.778  0.800  0.503-  47 1.43  43 1.43  46 1.43
  49  0.945  0.900  0.503-  30 1.43  46 1.43  16 1.44
  50  0.272  0.304  0.493-   8 1.42   5 1.42  57 1.91
  51  0.272  0.696  0.487-  12 1.41  15 1.43  58 2.07
  52  0.449  0.203  0.501-  23 1.43  20 1.44  57 1.93
  53  0.557  0.598  0.500-  26 1.42  25 1.44  58 2.03
  54  0.448  0.800  0.495-  27 1.42  28 1.43  58 2.00
  55  0.561  0.396  0.503-  24 1.37  25 1.39  57 2.02
  56  0.365  0.501  0.470-  11 1.34  57 1.97  58 1.97
  57  0.411  0.354  0.495-  50 1.91  52 1.93  56 1.97  55 2.02
  58  0.420  0.649  0.462-  56 1.97  54 2.00  53 2.03  51 2.07
 
  LATTYP: Found a triclinic cell.
 ALAT       =    13.0200673158
 B/A-ratio  =     1.8177866274
 C/A-ratio  =     0.9474285156
 COS(alpha) =     0.0016875026
 COS(beta)  =     0.0020902788
 COS(gamma) =     0.5491279019
  
  Lattice vectors:
  
 A1 = (  13.0200633447,  -0.0071868364,  -0.0071943213)
 A2 = (  13.0075199675,  -0.0115561590,  19.7728226468)
 A3 = (   0.0189786945, -12.3355673451,   0.0052221777)


Analysis of symmetry for initial positions (statically):
=====================================================================
 Subroutine PRICEL returns:
 Original cell was already a primitive cell.
 

 Routine SETGRP: Setting up the symmetry group for a 
 triclinic supercell.


 Subroutine GETGRP returns: Found  1 space group operations
 (whereof  1 operations were pure point group operations)
 out of a pool of  2 trial point group operations.


The static configuration has the point symmetry C_1 .


Analysis of symmetry for dynamics (positions and initial velocities):
=====================================================================
 Subroutine PRICEL returns:
 Original cell was already a primitive cell.
 

 Routine SETGRP: Setting up the symmetry group for a 
 triclinic supercell.


 Subroutine GETGRP returns: Found  1 space group operations
 (whereof  1 operations were pure point group operations)
 out of a pool of  2 trial point group operations.


The dynamic configuration has the point symmetry C_1 .


Analysis of structural, dynamic, and magnetic symmetry:
=====================================================================
 Subroutine PRICEL returns:
 Original cell was already a primitive cell.
 

 Routine SETGRP: Setting up the symmetry group for a 
 triclinic supercell.


 Subroutine GETGRP returns: Found  1 space group operations
 (whereof  1 operations were pure point group operations)
 out of a pool of  2 trial point group operations.


The magnetic configuration has the point symmetry C_1 .


 Subroutine INISYM returns: Found  1 space group operations
 (whereof  1 operations are pure point group operations),
 and found     1 'primitive' translations

 
 
 KPOINTS: KPOINTS created by Atomic Simulation Env

Automatic generation of k-mesh.
Space group operators:
 irot       det(A)        alpha          n_x          n_y          n_z        tau_x        tau_y        tau_z
    1     1.000000     0.000000     1.000000     0.000000     0.000000     0.000000     0.000000     0.000000
 
 Subroutine IBZKPT returns following result:
 ===========================================
 
 Found      2 irreducible k-points:
 
 Following reciprocal coordinates:
            Coordinates               Weight
  0.250000  0.250000  0.000000      2.000000
 -0.250000  0.250000 -0.000000      2.000000
 
 Following cartesian coordinates:
            Coordinates               Weight
  0.019212  0.020296  0.000017      2.000000
 -0.019190  0.020237 -0.000008      2.000000
 
 
 Subroutine IBZKPT_HF returns following result:
 ==============================================
 
 Found      4 k-points in 1st BZ
 the following      4 k-points will be used (e.g. in the exchange kernel)
 Following reciprocal coordinates:   # in IRBZ
  0.250000  0.250000  0.000000    0.25000000   1 t-inv F
 -0.250000  0.250000 -0.000000    0.25000000   2 t-inv F
 -0.250000 -0.250000  0.000000    0.25000000   1 t-inv T
  0.250000 -0.250000  0.000000    0.25000000   2 t-inv T


--------------------------------------------------------------------------------------------------------




 Dimension of arrays:
   k-points           NKPTS =      2   k-points in BZ     NKDIM =      4   number of bands    NBANDS=    154
   number of dos      NEDOS =    301   number of ions     NIONS =     58
   non local maximal  LDIM  =      6   non local SUM 2l+1 LMDIM =     18
   total plane-waves  NPLWV = ******
   max r-space proj   IRMAX =      1   max aug-charges    IRDMAX=  20204
   dimension x,y,z NGX =    96 NGY =   90 NGZ =  144
   dimension x,y,z NGXF=   192 NGYF=  180 NGZF=  288
   support grid    NGXF=   192 NGYF=  180 NGZF=  288
   ions per type =              54   2   1   1
   NGX,Y,Z   is equivalent  to a cutoff of  12.26, 12.13, 12.10 a.u.
   NGXF,Y,Z  is equivalent  to a cutoff of  24.52, 24.26, 24.21 a.u.

 SYSTEM =  unknown system                          
 POSCAR =   C  N Fe Cr                             

 Startparameter for this run:
   NWRITE =      2    write-flag & timer
   PREC   = accura    normal or accurate (medium, high low for compatibility)
   ISTART =      1    job   : 0-new  1-cont  2-samecut
   ICHARG =      0    charge: 1-file 2-atom 10-const
   ISPIN  =      2    spin polarized calculation?
   LNONCOLLINEAR =      F non collinear calculations
   LSORBIT =      F    spin-orbit coupling
   INIWAV =      1    electr: 0-lowe 1-rand  2-diag
   LASPH  =      T    aspherical Exc in radial PAW
   METAGGA=      F    non-selfconsistent MetaGGA calc.

 Electronic Relaxation 1
   ENCUT  =  500.0 eV  36.75 Ry    6.06 a.u.  23.74 22.49 36.06*2*pi/ulx,y,z
   ENINI  =  500.0     initial cutoff
   ENAUG  =  644.9 eV  augmentation charge cutoff
   NELM   =    250;   NELMIN=  2; NELMDL=  0     # of ELM steps 
   EDIFF  = 0.1E-03   stopping-criterion for ELM
   LREAL  =      F    real-space projection
   NLSPLINE    = F    spline interpolate recip. space projectors
   LCOMPAT=      F    compatible to vasp.4.4
   GGA_COMPAT  = T    GGA compatible to vasp.4.4-vasp.4.6
   LMAXPAW     = -100 max onsite density
   LMAXMIX     =    2 max onsite mixed and CHGCAR
   VOSKOWN=      0    Vosko Wilk Nusair interpolation
   ROPT   =    0.00000   0.00000   0.00000   0.00000
 Ionic relaxation
   EDIFFG = -.3E-01   stopping-criterion for IOM
   NSW    =      0    number of steps for IOM
   NBLOCK =      1;   KBLOCK =      1    inner block; outer block 
   IBRION =     -1    ionic relax: 0-MD 1-quasi-New 2-CG
   NFREE  =      1    steps in history (QN), initial steepest desc. (CG)
   ISIF   =      2    stress and relaxation
   IWAVPR =     10    prediction:  0-non 1-charg 2-wave 3-comb
   ISYM   =      3    0-nonsym 1-usesym 2-fastsym
   LCORR  =      T    Harris-Foulkes like correction to forces

   POTIM  = 0.5000    time-step for ionic-motion
   TEIN   =    0.0    initial temperature
   TEBEG  =    0.0;   TEEND  =   0.0 temperature during run
   SMASS  =  -3.00    Nose mass-parameter (am)
   estimated Nose-frequenzy (Omega)   =  0.10E-29 period in steps =****** mass=  -0.387E-26a.u.
   SCALEE = 1.0000    scale energy and forces
   NPACO  =    256;   APACO  = 16.0  distance and # of slots for P.C.
   PSTRESS=    0.0 pullay stress

  Mass of Ions in am
   POMASS =  12.01 14.00 55.85 52.00
  Ionic Valenz
   ZVAL   =   4.00  5.00  8.00  6.00
  Atomic Wigner-Seitz radii
   RWIGS  =  -1.00 -1.00 -1.00 -1.00
  virtual crystal weights 
   VCA    =   1.00  1.00  1.00  1.00
   NELECT =     240.0000    total number of electrons
   NUPDOWN=      -1.0000    fix difference up-down

 DOS related values:
   EMIN   =  10.00;   EMAX   =-10.00  energy-range for DOS
   EFERMI =   0.00
   ISMEAR =     0;   SIGMA  =   0.10  broadening in eV -4-tet -1-fermi 0-gaus

 Electronic relaxation 2 (details)
   IALGO  =     53    algorithm
   LDIAG  =      T    sub-space diagonalisation (order eigenvalues)
   LSUBROT=      F    optimize rotation matrix (better conditioning)
   TURBO    =      0    0=normal 1=particle mesh
   IRESTART =      0    0=no restart 2=restart with 2 vectors
   NREBOOT  =      0    no. of reboots
   NMIN     =      0    reboot dimension
   EREF     =   0.00    reference energy to select bands
   IMIX   =      4    mixing-type and parameters
     AMIX     =   0.40;   BMIX     =  1.00
     AMIX_MAG =   1.60;   BMIX_MAG =  1.00
     AMIN     =   0.10
     WC   =   100.;   INIMIX=   1;  MIXPRE=   1;  MAXMIX= -45

 Intra band minimization:
   WEIMIN = 0.0000     energy-eigenvalue tresh-hold
   EBREAK =  0.16E-06  absolut break condition
   DEPER  =   0.30     relativ break condition  

   TIME   =   0.20     timestep for ELM

  volume/ion in A,a.u.               =      54.77       369.63
  Fermi-wavevector in a.u.,A,eV,Ry     =   0.692063  1.307810  6.516532  0.478952
  Thomas-Fermi vector in A             =   1.773890
 
 Write flags
   LWAVE        =      T    write WAVECAR
   LDOWNSAMPLE  =      F    k-point downsampling of WAVECAR
   LCHARG       =      T    write CHGCAR
   LVTOT        =      F    write LOCPOT, total local potential
   LVHAR        =      F    write LOCPOT, Hartree potential only
   LELF         =      F    write electronic localiz. function (ELF)
   LORBIT       =     11    0 simple, 1 ext, 2 COOP (PROOUT), +10 PAW based schemes


 Dipole corrections
   LMONO  =      F    monopole corrections only (constant potential shift)
   LDIPOL =      T    correct potential (dipole corrections)
   IDIPOL =      3    1-x, 2-y, 3-z, 4-all directions 
   EPSILON=  1.0000000 bulk dielectric constant

 Exchange correlation treatment:
   GGA     =    PE    GGA type
   LEXCH   =     8    internal setting for exchange type
   VOSKOWN=      0    Vosko Wilk Nusair interpolation
   EXXOEP  =     0    0=HF, 1=EXX-LHF (local Hartree Fock) 2=EXX OEP
   LHFCALC =     T    Hartree Fock is set to
   LSYMGRAD=     F    symmetrize gradient (conserves proper symmetry)
   PRECFOCK=normal    Normal, Fast or Accurate (Low or Medium for compatibility)
   LRHFCALC=     F    long range Hartree Fock
   LRSCOR  =     F    long range correlation only (use DFT for short range part)
   LTHOMAS =     F    Thomas Fermi screening in HF
   LMODELHF=     F    short range full HF, long range fraction AEXX
   ENCUT4O =  -1.0   cutoff for four orbital integrals eV
   LMAXFOCK=     4    L truncation for augmentation on plane wave grid
   LMAXFOCKAE=  -1    L truncation for all-electron charge restoration on plane wave grid
   NMAXFOCKAE=   1    number of basis functions for all-electron charge restoration
   LFOCKAEDFT=     F  apply the AE augmentation even for DFT
   NKREDX  =     1    reduce k-point grid by
   NKREDY  =     1    reduce k-point grid by
   NKREDZ  =     1    reduce k-point grid by
   SHIFTRED=     F    shift reduced grid of Gamma
   HFKIDENT=     F    idential grid for each k-point
   ODDONLY =     F    use only odd q-grid points
   EVENONLY=     F    use only even q-grid points
   HFALPHA =   -1.0000 decay constant for conv. correction
   MCALPHA =    0.0000 extent of test-charge in conv. correction in multipole expansion
   AEXX    =    0.2500 exact exchange contribution
   HFSCREEN=    0.2000 screening length (either q_TF or 0.3 A-1)
   HFSCREENC=   0.2000 screening length for correlation (either q_TF or 0.3 A-1)
   HFRCUT  =    0.0000 spherical cutoff for potential kernel
   ALDAX   =    0.7500 LDA exchange part
   AGGAX   =    0.7500 GGA exchange part
   ALDAC   =    1.0000 LDA correlation
   AGGAC   =    1.0000 GGA correlation
   ENCUTFOCK=  -1.0 apply spherical cutoff to Coloumb kernel
   NBANDSGWLOW=     1    first orbital included in HF term
   NBLOCK_FOCK=    64    blocking factor in FOCK_ACC
 Linear response parameters
   LEPSILON=     F    determine dielectric tensor
   LRPA    =     F    only Hartree local field effects (RPA)
   LNABLA  =     F    use nabla operator in PAW spheres
   LVEL    =     F    velocity operator in full k-point grid
   LINTERFAST=   F  fast interpolation
   KINTER  =     0    interpolate to denser k-point grid
   CSHIFT  =0.1000    complex shift for real part using Kramers Kronig
   OMEGAMAX=  -1.0    maximum frequency
   DEG_THRESHOLD= 0.2000000E-02 threshold for treating states as degnerate
   RTIME   =   -0.100 relaxation time in fs
  (WPLASMAI=    0.000 imaginary part of plasma frequency in eV, 0.658/RTIME)
   DFIELD  = 0.0000000 0.0000000 0.0000000 field for delta impulse in time
 
 Orbital magnetization related:
   ORBITALMAG=     F  switch on orbital magnetization
   LCHIMAG   =     F  perturbation theory with respect to B field
   DQ        =  0.001000  dq finite difference perturbation B field
   LLRAUG    =     F  two centre corrections for induced B field



--------------------------------------------------------------------------------------------------------


 Static calculation
 charge density and potential will be updated during run
 spin polarized calculation
 Conjugate gradient for all bands (Freysoldt, et al. PRB 79, 241103 (2009))
 perform sub-space diagonalisation
    before iterative eigenvector-optimisation
 modified Broyden-mixing scheme, WC =      100.0
 initial mixing is a Kerker type mixing with AMIX =  0.4000 and BMIX =      1.0000
 Hartree-type preconditioning will be used
 using additional bands           34
 reciprocal scheme for non local part
 use partial core corrections
 no Harris-corrections to forces 
 use gradient corrections 
 use of overlap-Matrix (Vanderbilt PP)
 Gauss-broadening in eV      SIGMA  =   0.10


--------------------------------------------------------------------------------------------------------


  energy-cutoff  :      500.00
  volume of cell :     3176.86
      direct lattice vectors                 reciprocal lattice vectors
    13.020063345 -0.007186836 -0.007194321     0.076804634  0.000118187  0.000048731
    -0.018978694 12.335567345 -0.005222178     0.000044757  0.081066473  0.000017936
    -0.012543377 -0.004369323 19.780016968     0.000027947  0.000021446  0.050556096

  length of vectors
    13.020067316 12.335583050 19.780021428     0.076804740  0.081066488  0.050556109


 
 old parameters found on file WAVECAR:
  energy-cutoff  :      500.00
  volume of cell :     3176.86
      direct lattice vectors                 reciprocal lattice vectors
    13.035000000  0.000000000  0.000000000     0.076716532  0.000087166 -0.000023042
    -0.013944808 12.273092078  0.000000000     0.000000000  0.081479060 -0.000010978
     0.005961275  0.002675485 19.857898925     0.000000000  0.000000000  0.050357795

  length of vectors

 
 k-points in units of 2pi/SCALE and weight: KPOINTS created by Atomic Simulation Env
   0.01921235  0.02029617  0.00001667       0.500
  -0.01918997  0.02023707 -0.00000770       0.500
 
 k-points in reciprocal lattice and weights: KPOINTS created by Atomic Simulation Env
   0.25000000  0.25000000  0.00000000       0.500
  -0.25000000  0.25000000 -0.00000000       0.500
 
 position of ions in fractional coordinates (direct lattice) 
   0.22474567  0.00027722  0.49926430
   0.05644641  0.09946884  0.50198862
   0.11269461  0.00001240  0.50059124
   0.27969390  0.10181905  0.49921646
   0.22204363  0.20222684  0.49832051
   0.05263715  0.29893937  0.50330975
   0.11101028  0.20024388  0.50126316
   0.21207246  0.39994779  0.49440108
   0.04974005  0.50027108  0.50364553
   0.10410083  0.40005070  0.50138647
   0.26500664  0.50056504  0.48533076
   0.21192974  0.60140806  0.49255662
   0.05231052  0.70117206  0.50235252
   0.10418332  0.60052557  0.50110338
   0.22246501  0.79772020  0.49504750
   0.05635150  0.90022309  0.50126754
   0.11087261  0.79963297  0.49979258
   0.27943677  0.89908253  0.49675126
   0.55660464  0.00021488  0.50122679
   0.39150056  0.10352027  0.49996664
   0.44577745  0.00110708  0.49989543
   0.61335578  0.09979127  0.50295487
   0.55866672  0.19986802  0.50319961
   0.61600804  0.30104248  0.50459775
   0.61083333  0.49630679  0.50401710
   0.61297482  0.69702900  0.50156018
   0.55721660  0.80050360  0.49944941
   0.39097138  0.89874357  0.49717006
   0.61284316  0.90043585  0.50102399
   0.89009509  0.99962239  0.50299918
   0.72373977  0.09898745  0.50365355
   0.77929704  0.99948428  0.50298798
   0.94567210  0.09926233  0.50335098
   0.88901300  0.19860482  0.50481551
   0.72490939  0.29913226  0.50570122
   0.77927724  0.19849839  0.50491686
   0.94289998  0.29898412  0.50551412
   0.88788312  0.39926444  0.50676625
   0.72198131  0.49872083  0.50630616
   0.77846788  0.39949616  0.50674541
   0.94138835  0.50007578  0.50627475
   0.88686596  0.60033033  0.50593507
   0.72306750  0.69960615  0.50359638
   0.77693145  0.59951615  0.50576586
   0.94215003  0.70057573  0.50430094
   0.88826883  0.80064504  0.50333321
   0.72325258  0.90017086  0.50217048
   0.77819781  0.80014619  0.50292682
   0.94543115  0.90004453  0.50257587
   0.27228495  0.30443441  0.49339664
   0.27224623  0.69564937  0.48744197
   0.44913143  0.20305662  0.50126835
   0.55695406  0.59794542  0.49970819
   0.44838209  0.80004043  0.49458295
   0.56140340  0.39591056  0.50339201
   0.36507093  0.50102234  0.47028322
   0.41146431  0.35432143  0.49465213
   0.42018945  0.64920167  0.46196683
 
 position of ions in cartesian coordinates  (Angst):
   2.91993511 -0.00037694  9.87383797
   0.72675135  1.22440561  9.92841793
   1.46101164 -0.00284421  9.90089231
   3.63343805  1.25180438  9.87196607
   2.88093350  2.49080969  9.85413463
   0.67335234  3.68500933  9.95353561
   1.43527292  2.46713389  9.91314953
   2.74740494  4.92989862  9.77564737
   0.63180676  6.16856959  9.95914676
   1.34151783  4.93191353  9.91459483
   3.43481550  6.17072868  9.59533018
   2.74174631  7.41503443  9.73811303
   0.66147778  8.64678424  9.93250335
   1.33879072  7.40488539  9.90794784
   2.87515929  9.83656946  9.78628156
   0.71032748 11.10216734  9.90997392
   1.42212336  9.86094576  9.88093219
   3.61499011 11.08651434  9.81904290
   7.24073651 -0.00353960  9.91026891
   5.08912608  1.27198308  9.88599146
   5.79775927  0.00826856  9.88472722
   7.97772840  1.22437623  9.94352204
   7.26377098  2.45927178  9.94823382
   8.00842093  3.70689786  9.97494829
   7.93734726  6.11563362  9.96248041
   7.96145097  8.59165136  9.91281887
   7.23353815  9.86847914  9.87092858
   5.06717892 11.08152975  9.82652604
   7.95588317 11.10079348  9.90115187
  11.56381367 12.32231454  9.93770856
   9.41494154  1.21366430  9.95655203
  10.12121877 12.32140722  9.93828486
  12.30451312  1.21546145  9.94896917
  11.56490428  2.44130819  9.97782627
   9.42634587  3.68254677  9.99600128
  10.13613845  2.44078364  9.98062104
  12.26460234  3.67915356  9.99073301
  11.54636038  4.91655811 10.01537226
   9.38442653  6.14460346 10.00694584
  10.12176284  4.92020297 10.01574595
  12.24109474  6.15974076 10.00473894
  11.52931132  7.39683086  9.99788875
   9.39479018  8.62264181  9.95228955
  10.09797470  7.38757828  9.99533694
  12.24723145  8.63302455  9.96464440
  11.54380773  9.86782779  9.94536784
   9.39341144 11.09672622  9.92303653
  10.11069070  9.86246697  9.93812390
  12.28618779 11.09356939  9.92945733
   3.53320072  3.75125848  9.75584521
   3.52534643  8.57714331  9.63601908
   5.83757826  2.49940056  9.91080494
   7.23396086  7.36980984  9.87710689
   5.81657582  9.86356910  9.77545542
   7.29567968  4.87754721  9.95099615
   4.73783894  6.17571634  9.29696724
   5.34436216  4.36563739  9.77941699
   5.45277759  8.00323261  9.13129853
 


--------------------------------------------------------------------------------------------------------


 k-point  1 :   0.2500 0.2500 0.0000  plane waves:   80656
 k-point  2 :  -0.2500 0.2500-0.0000  plane waves:   80659

 maximum and minimum number of plane-waves per node :      2551     2485

 maximum number of plane-waves:     80659
 maximum index in each direction: 
   IXMAX=   23   IYMAX=   22   IZMAX=   36
   IXMIN=  -23   IYMIN=  -22   IZMIN=  -36


 parallel 3D FFT for wavefunctions:
    minimum data exchange during FFTs selected (reduces bandwidth)
 parallel 3D FFT for charge:
    minimum data exchange during FFTs selected (reduces bandwidth)


 FFT grid for exact exchange (Hartree Fock) 
  NGX = 72; NGY = 70; NGZ =112

 
 Radii for the augmentation spheres in the non-local exchange
 for species   1 augmentation radius   0.874 (default was   0.699)
       energy cutoff for augmentation   2000.0
 for species   2 augmentation radius   0.886 (default was   0.709)
       energy cutoff for augmentation   2000.0
 for species   3 augmentation radius   1.263 (default was   1.010)
       energy cutoff for augmentation   2000.0
 for species   4 augmentation radius   1.424 (default was   1.139)
       energy cutoff for augmentation   2000.0

 real space projection operators:
  total allocation   :       2656.37 KBytes
  max/ min on nodes  :        139.77         45.28

 Maximum index for augmentation-charges in exchange          195
  SETUP_FOCK is finished

 total amount of memory used by VASP MPI-rank0   160358. kBytes
=======================================================================

   base      :      30000. kBytes
   nonl-proj :       5322. kBytes
   fftplans  :      12974. kBytes
   grid      :      33177. kBytes
   one-center:         62. kBytes
   HF        :         23. kBytes
   nonlr-proj:       2369. kBytes
   wavefun   :      76431. kBytes
 
     INWAV:  cpu time    3.4279: real time    3.4285
 Broyden mixing: mesh for mixing (old mesh)
   NGX = 47   NGY = 45   NGZ = 73
  (NGX  =192   NGY  =180   NGZ  =288)
  gives a total of 154395 points

 charge density for first step will be calculated from the start-wavefunctions


--------------------------------------------------------------------------------------------------------


 Maximum index for augmentation-charges          221 (set IRDMAX)


--------------------------------------------------------------------------------------------------------


 initial charge from wavefunction
 First call to EWALD:  gamma=   0.121
 Maximum number of real-space cells 3x 3x 2
 Maximum number of reciprocal cells 2x 2x 4

    FEWALD:  cpu time    0.0031: real time    0.0031


--------------------------------------- Iteration      1(   1)  ---------------------------------------


    POTLOK:  cpu time    1.2447: real time    1.2498
    SETDIJ:  cpu time    2.0818: real time    2.0893
    TRIAL :  cpu time  513.4760: real time  513.5501
    CORREC:  cpu time    0.0023: real time    0.0026
    CHARGE:  cpu time    1.5948: real time    1.5948
    --------------------------------------------
      LOOP:  cpu time  518.4151: real time  518.5048

 eigenvalue-minimisations  :     0
 total energy-change (2. order) :-0.6063542E+03  (-0.4386443E+00)
 number of electron     240.0000029 magnetization       4.6598875
 augmentation part       12.0231056 magnetization       3.6271013

 DIPCOR: dipole corrections for dipol
 direction  3 min pos     1,
 dipolmoment          -0.000096     -0.000033      0.150926 electrons x Angstroem
 Tr[quadrupol]     -6386.487020

 energy correction for charged system         0.000000 eV
 dipol+quadrupol energy correction           -0.000652 eV
 added-field ion interaction          0.027990 eV  (added to PSCEN)


 Free energy of the ion-electron system (eV)
  ---------------------------------------------------
  alpha Z        PSCENC =        98.79310250
  Ewald energy   TEWEN  =     36913.82802568
  -Hartree energ DENC   =    -44894.15579699
  -exchange      EXHF   =       534.45078787
  -V(xc)+E(xc)   XCENC  =       586.69793111
  PAW double counting   =     25348.29066755   -25369.88459030
  entropy T*S    EENTRO =        -0.04080426
  eigenvalues    EBANDS =     -3059.33568632
  atomic energy  EATOM  =      9235.00324046
  ---------------------------------------------------
  free energy    TOTEN  =      -606.35423556 eV

  energy without entropy =     -606.31343130  energy(sigma->0) =     -606.33383343
  exchange ACFDT corr.  =        -0.07522097  see jH, gK, PRB 81, 115126


--------------------------------------------------------------------------------------------------------




--------------------------------------- Iteration      1(   2)  ---------------------------------------


    POTLOK:  cpu time    1.2677: real time    1.2681
    SETDIJ:  cpu time    2.0828: real time    2.0829
    TRIAL :  cpu time  515.5694: real time  515.6563
    CORREC:  cpu time    0.0022: real time    0.0025
    CHARGE:  cpu time    1.5895: real time    1.5896
    --------------------------------------------
      LOOP:  cpu time  520.5141: real time  520.6018

 eigenvalue-minimisations  :     0
 total energy-change (2. order) :-0.3624432E+00  (-0.3945434E+00)
 number of electron     240.0000029 magnetization       4.6935442
 augmentation part       11.9944666 magnetization       3.7120870

 DIPCOR: dipole corrections for dipol
 direction  3 min pos     1,
 dipolmoment          -0.000106     -0.000037      0.167760 electrons x Angstroem
 Tr[quadrupol]     -6386.307064

 energy correction for charged system         0.000000 eV
 dipol+quadrupol energy correction           -0.000805 eV
 added-field ion interaction          0.031112 eV  (added to PSCEN)


 Free energy of the ion-electron system (eV)
  ---------------------------------------------------
  alpha Z        PSCENC =        98.79607102
  Ewald energy   TEWEN  =     36913.82802568
  -Hartree energ DENC   =    -44878.37258808
  -exchange      EXHF   =       534.32382868
  -V(xc)+E(xc)   XCENC  =       586.35037435
  PAW double counting   =     25467.02542032   -25488.08821832
  entropy T*S    EENTRO =        -0.04020305
  eigenvalues    EBANDS =     -3075.54202855
  atomic energy  EATOM  =      9235.00324046
  ---------------------------------------------------
  free energy    TOTEN  =      -606.71667871 eV

  energy without entropy =     -606.67647566  energy(sigma->0) =     -606.69657718
  exchange ACFDT corr.  =        -0.06625335  see jH, gK, PRB 81, 115126


--------------------------------------------------------------------------------------------------------




--------------------------------------- Iteration      1(   3)  ---------------------------------------


    POTLOK:  cpu time    1.2689: real time    1.2691
    SETDIJ:  cpu time    2.0806: real time    2.0807
    TRIAL :  cpu time  514.2979: real time  514.3509
    CORREC:  cpu time    0.0023: real time    0.0026
    CHARGE:  cpu time    1.5860: real time    1.5861
    --------------------------------------------
      LOOP:  cpu time  519.2383: real time  519.2918

 eigenvalue-minimisations  :     0
 total energy-change (2. order) :-0.3080168E+00  (-0.2371696E+00)
 number of electron     240.0000029 magnetization       4.7308378
 augmentation part       11.9954830 magnetization       3.7923515

 DIPCOR: dipole corrections for dipol
 direction  3 min pos     1,
 dipolmoment          -0.000102     -0.000035      0.160198 electrons x Angstroem
 Tr[quadrupol]     -6386.117989

 energy correction for charged system         0.000000 eV
 dipol+quadrupol energy correction           -0.000734 eV
 added-field ion interaction          0.029710 eV  (added to PSCEN)


 Free energy of the ion-electron system (eV)
  ---------------------------------------------------
  alpha Z        PSCENC =        98.79473953
  Ewald energy   TEWEN  =     36913.82802568
  -Hartree energ DENC   =    -44861.91676652
  -exchange      EXHF   =       534.25328055
  -V(xc)+E(xc)   XCENC  =       586.00629263
  PAW double counting   =     25623.51190845   -25644.34755905
  entropy T*S    EENTRO =        -0.03947308
  eigenvalues    EBANDS =     -3092.11765416
  atomic energy  EATOM  =      9235.00324046
  ---------------------------------------------------
  free energy    TOTEN  =      -607.02469548 eV

  energy without entropy =     -606.98522240  energy(sigma->0) =     -607.00495894
  exchange ACFDT corr.  =        -0.05880194  see jH, gK, PRB 81, 115126


--------------------------------------------------------------------------------------------------------




--------------------------------------- Iteration      1(   4)  ---------------------------------------


    POTLOK:  cpu time    1.2719: real time    1.2722
    SETDIJ:  cpu time    2.0758: real time    2.0821
    TRIAL :  cpu time  510.6094: real time  510.6672
    CORREC:  cpu time    0.0023: real time    0.0025
    CHARGE:  cpu time    1.5839: real time    1.5840
    --------------------------------------------
      LOOP:  cpu time  515.5455: real time  515.6102

 eigenvalue-minimisations  :     0
 total energy-change (2. order) :-0.1842093E+00  (-0.1430615E+00)
 number of electron     240.0000029 magnetization       4.7587020
 augmentation part       11.9976601 magnetization       3.8495629

 DIPCOR: dipole corrections for dipol
 direction  3 min pos     1,
 dipolmoment          -0.000098     -0.000034      0.153843 electrons x Angstroem
 Tr[quadrupol]     -6386.040344

 energy correction for charged system         0.000000 eV
 dipol+quadrupol energy correction           -0.000677 eV
 added-field ion interaction          0.028531 eV  (added to PSCEN)


 Free energy of the ion-electron system (eV)
  ---------------------------------------------------
  alpha Z        PSCENC =        98.79361804
  Ewald energy   TEWEN  =     36913.82802568
  -Hartree energ DENC   =    -44854.42921285
  -exchange      EXHF   =       534.37698758
  -V(xc)+E(xc)   XCENC  =       585.88046350
  PAW double counting   =     25761.42214957   -25782.39662685
  entropy T*S    EENTRO =        -0.03841091
  eigenvalues    EBANDS =     -3099.64807685
  atomic energy  EATOM  =      9235.00324046
  ---------------------------------------------------
  free energy    TOTEN  =      -607.20890479 eV

  energy without entropy =     -607.17049388  energy(sigma->0) =     -607.18969933
  exchange ACFDT corr.  =        -0.05287566  see jH, gK, PRB 81, 115126


--------------------------------------------------------------------------------------------------------




--------------------------------------- Iteration      1(   5)  ---------------------------------------


    POTLOK:  cpu time    1.2690: real time    1.2691
    SETDIJ:  cpu time    2.1141: real time    2.1141
    TRIAL :  cpu time  509.9148: real time  509.9574
    CORREC:  cpu time    0.0022: real time    0.0025
    CHARGE:  cpu time    1.5871: real time    1.5871
    --------------------------------------------
      LOOP:  cpu time  514.8895: real time  514.9325

 eigenvalue-minimisations  :     0
 total energy-change (2. order) :-0.1172032E+00  (-0.9945671E-01)
 number of electron     240.0000029 magnetization       4.7868335
 augmentation part       11.9959463 magnetization       3.8911228

 DIPCOR: dipole corrections for dipol
 direction  3 min pos     1,
 dipolmoment          -0.000104     -0.000036      0.163574 electrons x Angstroem
 Tr[quadrupol]     -6386.064206

 energy correction for charged system         0.000000 eV
 dipol+quadrupol energy correction           -0.000765 eV
 added-field ion interaction          0.030336 eV  (added to PSCEN)


 Free energy of the ion-electron system (eV)
  ---------------------------------------------------
  alpha Z        PSCENC =        98.79533444
  Ewald energy   TEWEN  =     36913.82802568
  -Hartree energ DENC   =    -44854.77988912
  -exchange      EXHF   =       534.65012622
  -V(xc)+E(xc)   XCENC  =       585.95160646
  PAW double counting   =     25861.51545523   -25882.60887301
  entropy T*S    EENTRO =        -0.03725174
  eigenvalues    EBANDS =     -3099.64272342
  atomic energy  EATOM  =      9235.00324046
  ---------------------------------------------------
  free energy    TOTEN  =      -607.32610797 eV

  energy without entropy =     -607.28885624  energy(sigma->0) =     -607.30748211
  exchange ACFDT corr.  =        -0.04716634  see jH, gK, PRB 81, 115126


--------------------------------------------------------------------------------------------------------




--------------------------------------- Iteration      1(   6)  ---------------------------------------


    POTLOK:  cpu time    1.2705: real time    1.2706
    SETDIJ:  cpu time    2.0843: real time    2.0843
    TRIAL :  cpu time  510.1922: real time  510.2523
    CORREC:  cpu time    0.0022: real time    0.0025
    CHARGE:  cpu time    1.5821: real time    1.5822
    --------------------------------------------
      LOOP:  cpu time  515.1334: real time  515.1940

 eigenvalue-minimisations  :     0
 total energy-change (2. order) :-0.8396524E-01  (-0.7072193E-01)
 number of electron     240.0000030 magnetization       4.8218609
 augmentation part       11.9977695 magnetization       3.9271908

 DIPCOR: dipole corrections for dipol
 direction  3 min pos     1,
 dipolmoment          -0.000111     -0.000039      0.174928 electrons x Angstroem
 Tr[quadrupol]     -6386.124421

 energy correction for charged system         0.000000 eV
 dipol+quadrupol energy correction           -0.000875 eV
 added-field ion interaction          0.032441 eV  (added to PSCEN)


 Free energy of the ion-electron system (eV)
  ---------------------------------------------------
  alpha Z        PSCENC =        98.79733002
  Ewald energy   TEWEN  =     36913.82802568
  -Hartree energ DENC   =    -44858.18542092
  -exchange      EXHF   =       534.95308667
  -V(xc)+E(xc)   XCENC  =       586.10373158
  PAW double counting   =     25925.82177495   -25946.93503365
  entropy T*S    EENTRO =        -0.03610882
  eigenvalues    EBANDS =     -3096.75955625
  atomic energy  EATOM  =      9235.00324046
  ---------------------------------------------------
  free energy    TOTEN  =      -607.41007321 eV

  energy without entropy =     -607.37396439  energy(sigma->0) =     -607.39201880
  exchange ACFDT corr.  =        -0.04240071  see jH, gK, PRB 81, 115126


--------------------------------------------------------------------------------------------------------




--------------------------------------- Iteration      1(   7)  ---------------------------------------


    POTLOK:  cpu time    1.2701: real time    1.2702
    SETDIJ:  cpu time    2.0819: real time    2.0819
    TRIAL :  cpu time  510.0510: real time  510.0972
    CORREC:  cpu time    0.0021: real time    0.0024
    CHARGE:  cpu time    1.5821: real time    1.5821
    --------------------------------------------
      LOOP:  cpu time  514.9897: real time  515.0363

 eigenvalue-minimisations  :     0
 total energy-change (2. order) :-0.6137116E-01  (-0.5248019E-01)
 number of electron     240.0000030 magnetization       4.8605612
 augmentation part       12.0037833 magnetization       3.9608219

 DIPCOR: dipole corrections for dipol
 direction  3 min pos     1,
 dipolmoment          -0.000112     -0.000039      0.176671 electrons x Angstroem
 Tr[quadrupol]     -6386.176639

 energy correction for charged system         0.000000 eV
 dipol+quadrupol energy correction           -0.000893 eV
 added-field ion interaction          0.032765 eV  (added to PSCEN)


 Free energy of the ion-electron system (eV)
  ---------------------------------------------------
  alpha Z        PSCENC =        98.79763584
  Ewald energy   TEWEN  =     36913.82802568
  -Hartree energ DENC   =    -44861.55863982
  -exchange      EXHF   =       535.20863925
  -V(xc)+E(xc)   XCENC  =       586.25398162
  PAW double counting   =     25964.16074460   -25985.30556900
  entropy T*S    EENTRO =        -0.03494878
  eigenvalues    EBANDS =     -3093.82339418
  atomic energy  EATOM  =      9235.00324046
  ---------------------------------------------------
  free energy    TOTEN  =      -607.47144437 eV

  energy without entropy =     -607.43649559  energy(sigma->0) =     -607.45396998
  exchange ACFDT corr.  =        -0.03884867  see jH, gK, PRB 81, 115126


--------------------------------------------------------------------------------------------------------




--------------------------------------- Iteration      1(   8)  ---------------------------------------


    POTLOK:  cpu time    1.2691: real time    1.2692
    SETDIJ:  cpu time    2.0824: real time    2.0824
    TRIAL :  cpu time  510.4842: real time  510.5409
    CORREC:  cpu time    0.0023: real time    0.0025
    CHARGE:  cpu time    1.5822: real time    1.5823
    --------------------------------------------
      LOOP:  cpu time  515.4227: real time  515.4800

 eigenvalue-minimisations  :     0
 total energy-change (2. order) :-0.4672532E-01  (-0.4065228E-01)
 number of electron     240.0000030 magnetization       4.8977673
 augmentation part       12.0097084 magnetization       3.9912359

 DIPCOR: dipole corrections for dipol
 direction  3 min pos     1,
 dipolmoment          -0.000109     -0.000038      0.172171 electrons x Angstroem
 Tr[quadrupol]     -6386.207728

 energy correction for charged system         0.000000 eV
 dipol+quadrupol energy correction           -0.000848 eV
 added-field ion interaction          0.031930 eV  (added to PSCEN)


 Free energy of the ion-electron system (eV)
  ---------------------------------------------------
  alpha Z        PSCENC =        98.79684613
  Ewald energy   TEWEN  =     36913.82802568
  -Hartree energ DENC   =    -44863.81131149
  -exchange      EXHF   =       535.39647057
  -V(xc)+E(xc)   XCENC  =       586.37022004
  PAW double counting   =     25985.62882377   -26006.85042650
  entropy T*S    EENTRO =        -0.03375112
  eigenvalues    EBANDS =     -3091.84510957
  atomic energy  EATOM  =      9235.00324046
  ---------------------------------------------------
  free energy    TOTEN  =      -607.51816969 eV

  energy without entropy =     -607.48441857  energy(sigma->0) =     -607.50129413
  exchange ACFDT corr.  =        -0.03608587  see jH, gK, PRB 81, 115126


--------------------------------------------------------------------------------------------------------




--------------------------------------- Iteration      1(   9)  ---------------------------------------


    POTLOK:  cpu time    1.2687: real time    1.2687
    SETDIJ:  cpu time    2.0807: real time    2.0807
    TRIAL :  cpu time  509.9539: real time  509.9877
    CORREC:  cpu time    0.0022: real time    0.0024
    CHARGE:  cpu time    1.5808: real time    1.5808
    --------------------------------------------
      LOOP:  cpu time  514.8886: real time  514.9226

 eigenvalue-minimisations  :     0
 total energy-change (2. order) :-0.3688817E-01  (-0.3275122E-01)
 number of electron     240.0000030 magnetization       4.9325340
 augmentation part       12.0132729 magnetization       4.0182972

 DIPCOR: dipole corrections for dipol
 direction  3 min pos     1,
 dipolmoment          -0.000107     -0.000037      0.168674 electrons x Angstroem
 Tr[quadrupol]     -6386.221952

 energy correction for charged system         0.000000 eV
 dipol+quadrupol energy correction           -0.000814 eV
 added-field ion interaction          0.031282 eV  (added to PSCEN)


 Free energy of the ion-electron system (eV)
  ---------------------------------------------------
  alpha Z        PSCENC =        98.79623176
  Ewald energy   TEWEN  =     36913.82802568
  -Hartree energ DENC   =    -44864.95975756
  -exchange      EXHF   =       535.52776963
  -V(xc)+E(xc)   XCENC  =       586.45129756
  PAW double counting   =     25996.82683146   -26018.12905043
  entropy T*S    EENTRO =        -0.03254818
  eigenvalues    EBANDS =     -3090.86589531
  atomic energy  EATOM  =      9235.00324046
  ---------------------------------------------------
  free energy    TOTEN  =      -607.55505787 eV

  energy without entropy =     -607.52250969  energy(sigma->0) =     -607.53878378
  exchange ACFDT corr.  =        -0.03366818  see jH, gK, PRB 81, 115126


--------------------------------------------------------------------------------------------------------




--------------------------------------- Iteration      1(  10)  ---------------------------------------


    POTLOK:  cpu time    1.2646: real time    1.2647
    SETDIJ:  cpu time    2.0833: real time    2.0832
    TRIAL :  cpu time  510.1261: real time  510.1855
    CORREC:  cpu time    0.0021: real time    0.0024
    CHARGE:  cpu time    1.5828: real time    1.5829
    --------------------------------------------
      LOOP:  cpu time  515.0612: real time  515.1210

 eigenvalue-minimisations  :     0
 total energy-change (2. order) :-0.3016888E-01  (-0.2726226E-01)
 number of electron     240.0000030 magnetization       4.9670345
 augmentation part       12.0153572 magnetization       4.0430662

 DIPCOR: dipole corrections for dipol
 direction  3 min pos     1,
 dipolmoment          -0.000107     -0.000037      0.168678 electrons x Angstroem
 Tr[quadrupol]     -6386.227395

 energy correction for charged system         0.000000 eV
 dipol+quadrupol energy correction           -0.000814 eV
 added-field ion interaction          0.031282 eV  (added to PSCEN)


 Free energy of the ion-electron system (eV)
  ---------------------------------------------------
  alpha Z        PSCENC =        98.79623238
  Ewald energy   TEWEN  =     36913.82802568
  -Hartree energ DENC   =    -44865.40672672
  -exchange      EXHF   =       535.62221048
  -V(xc)+E(xc)   XCENC  =       586.50789593
  PAW double counting   =     26002.16519821   -26023.52293765
  entropy T*S    EENTRO =        -0.03139935
  eigenvalues    EBANDS =     -3090.54581733
  atomic energy  EATOM  =      9235.00324046
  ---------------------------------------------------
  free energy    TOTEN  =      -607.58522675 eV

  energy without entropy =     -607.55382740  energy(sigma->0) =     -607.56952707
  exchange ACFDT corr.  =        -0.03147011  see jH, gK, PRB 81, 115126


--------------------------------------------------------------------------------------------------------




--------------------------------------- Iteration      1(  11)  ---------------------------------------


    POTLOK:  cpu time    1.2645: real time    1.2645
    SETDIJ:  cpu time    2.0858: real time    2.0857
    TRIAL :  cpu time  509.1918: real time  509.2251
    CORREC:  cpu time    0.0021: real time    0.0024
    CHARGE:  cpu time    1.5815: real time    1.5814
    --------------------------------------------
      LOOP:  cpu time  514.1273: real time  514.1608

 eigenvalue-minimisations  :     0
 total energy-change (2. order) :-0.2540293E-01  (-0.2330256E-01)
 number of electron     240.0000030 magnetization       5.0029161
 augmentation part       12.0174746 magnetization       4.0664221

 DIPCOR: dipole corrections for dipol
 direction  3 min pos     1,
 dipolmoment          -0.000108     -0.000038      0.170308 electrons x Angstroem
 Tr[quadrupol]     -6386.229764

 energy correction for charged system         0.000000 eV
 dipol+quadrupol energy correction           -0.000830 eV
 added-field ion interaction          0.031584 eV  (added to PSCEN)


 Free energy of the ion-electron system (eV)
  ---------------------------------------------------
  alpha Z        PSCENC =        98.79651888
  Ewald energy   TEWEN  =     36913.82802568
  -Hartree energ DENC   =    -44865.54844839
  -exchange      EXHF   =       535.69620547
  -V(xc)+E(xc)   XCENC  =       586.55118141
  PAW double counting   =     26004.57417689   -26025.96862121
  entropy T*S    EENTRO =        -0.03037575
  eigenvalues    EBANDS =     -3090.51150952
  atomic energy  EATOM  =      9235.00324046
  ---------------------------------------------------
  free energy    TOTEN  =      -607.61062968 eV

  energy without entropy =     -607.58025393  energy(sigma->0) =     -607.59544180
  exchange ACFDT corr.  =        -0.02957051  see jH, gK, PRB 81, 115126


--------------------------------------------------------------------------------------------------------




--------------------------------------- Iteration      1(  12)  ---------------------------------------


    POTLOK:  cpu time    1.2643: real time    1.2645
    SETDIJ:  cpu time    2.0833: real time    2.0833
    TRIAL :  cpu time  509.9129: real time  509.9468
    CORREC:  cpu time    0.0022: real time    0.0025
    CHARGE:  cpu time    1.5808: real time    1.5809
    --------------------------------------------
      LOOP:  cpu time  514.8457: real time  514.8800

 eigenvalue-minimisations  :     0
 total energy-change (2. order) :-0.2194657E-01  (-0.2044145E-01)
 number of electron     240.0000030 magnetization       5.0402917
 augmentation part       12.0199811 magnetization       4.0883788

 DIPCOR: dipole corrections for dipol
 direction  3 min pos     1,
 dipolmoment          -0.000109     -0.000038      0.171344 electrons x Angstroem
 Tr[quadrupol]     -6386.231860

 energy correction for charged system         0.000000 eV
 dipol+quadrupol energy correction           -0.000840 eV
 added-field ion interaction          0.031777 eV  (added to PSCEN)


 Free energy of the ion-electron system (eV)
  ---------------------------------------------------
  alpha Z        PSCENC =        98.79670087
  Ewald energy   TEWEN  =     36913.82802568
  -Hartree energ DENC   =    -44865.64012728
  -exchange      EXHF   =       535.76008337
  -V(xc)+E(xc)   XCENC  =       586.58864845
  PAW double counting   =     26005.96870476   -26027.39809651
  entropy T*S    EENTRO =        -0.02955282
  eigenvalues    EBANDS =     -3090.50938030
  atomic energy  EATOM  =      9235.00324046
  ---------------------------------------------------
  free energy    TOTEN  =      -607.63257625 eV

  energy without entropy =     -607.60302343  energy(sigma->0) =     -607.61779984
  exchange ACFDT corr.  =        -0.02808825  see jH, gK, PRB 81, 115126


--------------------------------------------------------------------------------------------------------




--------------------------------------- Iteration      1(  13)  ---------------------------------------


    POTLOK:  cpu time    1.2589: real time    1.2590
    SETDIJ:  cpu time    2.0802: real time    2.0801
    TRIAL :  cpu time  509.4111: real time  509.4475
    CORREC:  cpu time    0.0021: real time    0.0024
    CHARGE:  cpu time    1.5863: real time    1.5863
    --------------------------------------------
      LOOP:  cpu time  514.3404: real time  514.3792

 eigenvalue-minimisations  :     0
 total energy-change (2. order) :-0.1944516E-01  (-0.1838883E-01)
 number of electron     240.0000030 magnetization       5.0790922
 augmentation part       12.0224133 magnetization       4.1086769

 DIPCOR: dipole corrections for dipol
 direction  3 min pos     1,
 dipolmoment          -0.000109     -0.000038      0.171332 electrons x Angstroem
 Tr[quadrupol]     -6386.234690

 energy correction for charged system         0.000000 eV
 dipol+quadrupol energy correction           -0.000840 eV
 added-field ion interaction          0.031774 eV  (added to PSCEN)


 Free energy of the ion-electron system (eV)
  ---------------------------------------------------
  alpha Z        PSCENC =        98.79669875
  Ewald energy   TEWEN  =     36913.82802568
  -Hartree energ DENC   =    -44865.78724171
  -exchange      EXHF   =       535.81900106
  -V(xc)+E(xc)   XCENC  =       586.62373843
  PAW double counting   =     26007.45143971   -26028.91985527
  entropy T*S    EENTRO =        -0.02899848
  eigenvalues    EBANDS =     -3090.43751570
  atomic energy  EATOM  =      9235.00324046
  ---------------------------------------------------
  free energy    TOTEN  =      -607.65202141 eV

  energy without entropy =     -607.62302293  energy(sigma->0) =     -607.63752217
  exchange ACFDT corr.  =        -0.02712871  see jH, gK, PRB 81, 115126


--------------------------------------------------------------------------------------------------------




--------------------------------------- Iteration      1(  14)  ---------------------------------------


    POTLOK:  cpu time    1.2553: real time    1.2553
    SETDIJ:  cpu time    2.0789: real time    2.0789
    TRIAL :  cpu time  509.8804: real time  509.9131
    CORREC:  cpu time    0.0023: real time    0.0025
    CHARGE:  cpu time    1.5829: real time    1.5828
    --------------------------------------------
      LOOP:  cpu time  514.8015: real time  514.8344

 eigenvalue-minimisations  :     0
 total energy-change (2. order) :-0.1765655E-01  (-0.1695946E-01)
 number of electron     240.0000030 magnetization       5.1200439
 augmentation part       12.0244787 magnetization       4.1274440

 DIPCOR: dipole corrections for dipol
 direction  3 min pos     1,
 dipolmoment          -0.000108     -0.000038      0.170907 electrons x Angstroem
 Tr[quadrupol]     -6386.238361

 energy correction for charged system         0.000000 eV
 dipol+quadrupol energy correction           -0.000836 eV
 added-field ion interaction          0.031696 eV  (added to PSCEN)


 Free energy of the ion-electron system (eV)
  ---------------------------------------------------
  alpha Z        PSCENC =        98.79662411
  Ewald energy   TEWEN  =     36913.82802568
  -Hartree energ DENC   =    -44865.99548891
  -exchange      EXHF   =       535.87486920
  -V(xc)+E(xc)   XCENC  =       586.65718444
  PAW double counting   =     26009.41979252   -26030.92667647
  entropy T*S    EENTRO =        -0.02875800
  eigenvalues    EBANDS =     -3090.29825050
  atomic energy  EATOM  =      9235.00324046
  ---------------------------------------------------
  free energy    TOTEN  =      -607.66967796 eV

  energy without entropy =     -607.64091996  energy(sigma->0) =     -607.65529896
  exchange ACFDT corr.  =        -0.02677908  see jH, gK, PRB 81, 115126


--------------------------------------------------------------------------------------------------------




--------------------------------------- Iteration      1(  15)  ---------------------------------------


    POTLOK:  cpu time    1.2534: real time    1.2534
    SETDIJ:  cpu time    2.0787: real time    2.0787
    TRIAL :  cpu time  510.1264: real time  510.1687
    CORREC:  cpu time    0.0022: real time    0.0025
    CHARGE:  cpu time    1.5811: real time    1.5811
    --------------------------------------------
      LOOP:  cpu time  515.0441: real time  515.0868

 eigenvalue-minimisations  :     0
 total energy-change (2. order) :-0.1642571E-01  (-0.1601878E-01)
 number of electron     240.0000030 magnetization       5.1643463
 augmentation part       12.0262968 magnetization       4.1451313

 DIPCOR: dipole corrections for dipol
 direction  3 min pos     1,
 dipolmoment          -0.000108     -0.000038      0.170515 electrons x Angstroem
 Tr[quadrupol]     -6386.242570

 energy correction for charged system         0.000000 eV
 dipol+quadrupol energy correction           -0.000832 eV
 added-field ion interaction          0.031623 eV  (added to PSCEN)


 Free energy of the ion-electron system (eV)
  ---------------------------------------------------
  alpha Z        PSCENC =        98.79655537
  Ewald energy   TEWEN  =     36913.82802568
  -Hartree energ DENC   =    -44866.23335616
  -exchange      EXHF   =       535.92830949
  -V(xc)+E(xc)   XCENC  =       586.68880417
  PAW double counting   =     26011.85907391   -26033.39976574
  entropy T*S    EENTRO =        -0.02883536
  eigenvalues    EBANDS =     -3090.12823284
  atomic energy  EATOM  =      9235.00324046
  ---------------------------------------------------
  free energy    TOTEN  =      -607.68610367 eV

  energy without entropy =     -607.65726831  energy(sigma->0) =     -607.67168599
  exchange ACFDT corr.  =        -0.02708579  see jH, gK, PRB 81, 115126


--------------------------------------------------------------------------------------------------------




--------------------------------------- Iteration      1(  16)  ---------------------------------------


    POTLOK:  cpu time    1.2526: real time    1.2526
    SETDIJ:  cpu time    2.0818: real time    2.0819
    TRIAL :  cpu time  509.0208: real time  509.0598
    CORREC:  cpu time    0.0020: real time    0.0023
    CHARGE:  cpu time    1.5820: real time    1.5820
    --------------------------------------------
      LOOP:  cpu time  513.9419: real time  513.9813

 eigenvalue-minimisations  :     0
 total energy-change (2. order) :-0.1564275E-01  (-0.1548297E-01)
 number of electron     240.0000030 magnetization       5.2129663
 augmentation part       12.0280222 magnetization       4.1620921

 DIPCOR: dipole corrections for dipol
 direction  3 min pos     1,
 dipolmoment          -0.000108     -0.000038      0.170147 electrons x Angstroem
 Tr[quadrupol]     -6386.246982

 energy correction for charged system         0.000000 eV
 dipol+quadrupol energy correction           -0.000828 eV
 added-field ion interaction          0.031555 eV  (added to PSCEN)


 Free energy of the ion-electron system (eV)
  ---------------------------------------------------
  alpha Z        PSCENC =        98.79649069
  Ewald energy   TEWEN  =     36913.82802568
  -Hartree energ DENC   =    -44866.47698385
  -exchange      EXHF   =       535.97984850
  -V(xc)+E(xc)   XCENC  =       586.71856316
  PAW double counting   =     26014.61185080   -26036.18236398
  entropy T*S    EENTRO =        -0.02917510
  eigenvalues    EBANDS =     -3089.95158250
  atomic energy  EATOM  =      9235.00324046
  ---------------------------------------------------
  free energy    TOTEN  =      -607.70174642 eV

  energy without entropy =     -607.67257132  energy(sigma->0) =     -607.68715887
  exchange ACFDT corr.  =        -0.02801357  see jH, gK, PRB 81, 115126


--------------------------------------------------------------------------------------------------------




--------------------------------------- Iteration      1(  17)  ---------------------------------------


    POTLOK:  cpu time    1.2509: real time    1.2509
    SETDIJ:  cpu time    2.0815: real time    2.0815
    TRIAL :  cpu time  509.6637: real time  509.7188
    CORREC:  cpu time    0.0022: real time    0.0022
    CHARGE:  cpu time    1.5932: real time    1.5931
    --------------------------------------------
      LOOP:  cpu time  514.5941: real time  514.6512

 eigenvalue-minimisations  :     0
 total energy-change (2. order) :-0.1523327E-01  (-0.1528291E-01)
 number of electron     240.0000030 magnetization       5.2664282
 augmentation part       12.0296398 magnetization       4.1784378

 DIPCOR: dipole corrections for dipol
 direction  3 min pos     1,
 dipolmoment          -0.000108     -0.000037      0.169723 electrons x Angstroem
 Tr[quadrupol]     -6386.251403

 energy correction for charged system         0.000000 eV
 dipol+quadrupol energy correction           -0.000824 eV
 added-field ion interaction          0.031476 eV  (added to PSCEN)


 Free energy of the ion-electron system (eV)
  ---------------------------------------------------
  alpha Z        PSCENC =        98.79641609
  Ewald energy   TEWEN  =     36913.82802568
  -Hartree energ DENC   =    -44866.71942043
  -exchange      EXHF   =       536.03014270
  -V(xc)+E(xc)   XCENC  =       586.74671266
  PAW double counting   =     26017.50855499   -26039.10696519
  entropy T*S    EENTRO =        -0.02966140
  eigenvalues    EBANDS =     -3089.77451155
  atomic energy  EATOM  =      9235.00324046
  ---------------------------------------------------
  free energy    TOTEN  =      -607.71697969 eV

  energy without entropy =     -607.68731829  energy(sigma->0) =     -607.70214899
  exchange ACFDT corr.  =        -0.02941156  see jH, gK, PRB 81, 115126


--------------------------------------------------------------------------------------------------------




--------------------------------------- Iteration      1(  18)  ---------------------------------------


    POTLOK:  cpu time    1.2522: real time    1.2522
    SETDIJ:  cpu time    2.0789: real time    2.0789
    TRIAL :  cpu time  509.9470: real time  509.9835
    CORREC:  cpu time    0.0021: real time    0.0024
    CHARGE:  cpu time    1.5889: real time    1.5889
    --------------------------------------------
      LOOP:  cpu time  514.8712: real time  514.9080

 eigenvalue-minimisations  :     0
 total energy-change (2. order) :-0.1513039E-01  (-0.1536351E-01)
 number of electron     240.0000030 magnetization       5.3249836
 augmentation part       12.0311029 magnetization       4.1942208

 DIPCOR: dipole corrections for dipol
 direction  3 min pos     1,
 dipolmoment          -0.000107     -0.000037      0.169270 electrons x Angstroem
 Tr[quadrupol]     -6386.255801

 energy correction for charged system         0.000000 eV
 dipol+quadrupol energy correction           -0.000820 eV
 added-field ion interaction          0.031392 eV  (added to PSCEN)


 Free energy of the ion-electron system (eV)
  ---------------------------------------------------
  alpha Z        PSCENC =        98.79633651
  Ewald energy   TEWEN  =     36913.82802568
  -Hartree energ DENC   =    -44866.96297737
  -exchange      EXHF   =       536.07982254
  -V(xc)+E(xc)   XCENC  =       586.77356339
  PAW double counting   =     26020.39258744   -26042.01762520
  entropy T*S    EENTRO =        -0.03013589
[...]
  augment    44.56986    41.33909    45.14751    -0.35610     0.94812     0.07654
  Kinetic  3530.22813  3513.86250  3952.77308     3.32829     2.41924     6.33212
  Fock     -302.06742  -299.33354  -279.25770     0.05252    -1.31472     0.90119
  -------------------------------------------------------------------------------------
  Total     -42.23144   -36.84928    -0.86487     2.84660     0.50830     1.39155
  in kB     -21.29846   -18.58409    -0.43618     1.43562     0.25635     0.70180
  external pressure =      -13.44 kB  Pullay stress =        0.00 kB


 VOLUME and BASIS-vectors are now :
 -----------------------------------------------------------------------------
  energy-cutoff  :      500.00
  volume of cell :     3176.86
      direct lattice vectors                 reciprocal lattice vectors
    13.020063345 -0.007186836 -0.007194321     0.076804634  0.000118187  0.000048731
    -0.018978694 12.335567345 -0.005222178     0.000044757  0.081066473  0.000017936
    -0.012543377 -0.004369323 19.780016968     0.000027947  0.000021446  0.050556096

  length of vectors
    13.020067316 12.335583050 19.780021428     0.076804740  0.081066488  0.050556109


 FORCES acting on ions:
    Electron-Ion                     Ewald-Force                    Non-Local-Force
 -----------------------------------------------------------------------------------------------
   -.346E+01 0.349E+01 -.341E+01   0.399E+01 -.363E+01 0.348E+01   -.449E+00 0.163E+00 -.970E-01
   -.335E+01 0.390E+01 -.667E+01   0.346E+01 -.402E+01 0.671E+01   -.175E+00 0.382E-01 -.336E-01
   -.133E+02 0.256E+01 -.220E+01   0.134E+02 -.262E+01 0.210E+01   -.244E+00 0.692E-01 0.112E+00
   -.780E+01 -.340E+00 -.209E+01   0.821E+01 0.740E+00 0.209E+01   -.501E+00 -.429E+00 -.128E-01
   -.114E+02 0.115E+02 0.113E+01   0.119E+02 -.112E+02 -.972E+00   -.548E+00 -.329E+00 -.125E+00
   -.142E+01 0.105E+02 -.161E+02   0.177E+01 -.106E+02 0.162E+02   -.188E+00 0.194E+00 -.535E-01
   -.856E+01 0.546E+01 -.643E+01   0.916E+01 -.547E+01 0.641E+01   -.521E+00 0.103E+00 0.302E-02
   0.498E+01 0.568E+01 0.526E+01   -.437E+01 -.703E+01 -.525E+01   -.595E+00 0.362E+00 0.118E+00
   -.419E+01 -.203E+01 -.226E+02   0.409E+01 0.222E+01 0.226E+02   -.710E-01 -.193E+00 0.479E-01
   0.154E+01 -.358E+00 -.167E+02   -.143E+01 0.271E+00 0.167E+02   -.151E+00 -.906E-01 -.117E+00
   0.290E+02 -.140E+02 0.364E+02   -.295E+02 0.145E+02 -.368E+02   0.237E+01 -.410E+00 -.401E-01
   -.102E+02 -.153E+02 0.414E+01   0.109E+02 0.174E+02 -.429E+01   -.911E+00 -.122E+01 -.251E-01
   -.242E+01 -.111E+02 -.167E+02   0.272E+01 0.112E+02 0.167E+02   -.222E+00 -.188E+00 0.445E-02
   -.296E+01 -.417E+01 -.223E+02   0.348E+01 0.440E+01 0.225E+02   -.456E+00 -.620E-01 -.209E+00
   -.213E+02 -.383E+01 0.700E+01   0.220E+02 0.287E+01 -.680E+01   -.106E+01 0.100E+01 -.205E+00
   -.452E+01 -.877E+00 -.611E+01   0.463E+01 0.841E+00 0.617E+01   -.212E+00 0.133E+00 -.542E-01
   -.144E+02 -.388E+01 -.561E+01   0.154E+02 0.385E+01 0.560E+01   -.745E+00 0.682E-02 0.798E-02
   -.996E+01 0.121E+02 0.477E+01   0.107E+02 -.129E+02 -.512E+01   -.675E+00 0.684E+00 0.262E+00
   0.104E+02 0.560E+01 -.563E+01   -.109E+02 -.579E+01 0.552E+01   0.425E+00 0.328E+00 0.972E-01
   0.900E+01 -.177E+01 -.430E+01   -.842E+01 0.229E+01 0.431E+01   -.357E+00 -.370E+00 0.546E-02
   0.827E+01 0.530E+01 -.607E+01   -.895E+01 -.575E+01 0.619E+01   0.642E+00 0.388E+00 -.274E-01
   0.340E+01 0.612E+01 -.989E+01   -.352E+01 -.648E+01 0.987E+01   0.260E+00 0.141E+00 -.273E-01
   0.509E+01 0.906E+01 -.148E+02   -.686E+01 -.986E+01 0.149E+02   0.119E+01 0.676E+00 -.125E+00
   -.915E+01 0.291E+02 -.203E+02   0.106E+02 -.320E+02 0.205E+02   -.154E+01 0.346E+01 -.185E+00
   0.198E+02 -.391E+02 -.266E+02   -.188E+02 0.438E+02 0.267E+02   -.806E+00 -.447E+01 -.127E+00
   0.200E+02 -.177E+01 -.189E+02   -.210E+02 0.748E+00 0.196E+02   0.878E+00 0.657E+00 -.751E+00
   0.102E+02 0.144E+02 -.119E+02   -.122E+02 -.139E+02 0.120E+02   0.164E+01 0.173E+00 -.110E+00
   0.826E+01 0.162E+02 -.489E+00   -.726E+01 -.174E+02 0.331E+00   -.548E+00 0.126E+01 0.119E+00
   0.560E+01 0.374E+01 -.501E+01   -.602E+01 -.448E+01 0.532E+01   0.611E+00 0.598E+00 -.114E+00
   0.210E+01 0.180E+01 -.581E+01   -.200E+01 -.187E+01 0.583E+01   -.323E-01 0.741E-01 -.895E-02
   0.509E+01 0.470E+01 -.822E+01   -.537E+01 -.503E+01 0.822E+01   0.132E+00 0.223E+00 0.837E-02
   -.235E+01 0.244E+01 -.562E+01   0.222E+01 -.260E+01 0.563E+01   0.689E-01 0.151E+00 -.180E-01
   -.672E+01 0.149E+01 -.785E+01   0.691E+01 -.168E+01 0.785E+01   -.124E+00 0.940E-01 0.312E-02
   -.141E+01 0.552E+01 -.127E+02   0.134E+01 -.569E+01 0.127E+02   -.768E-01 0.183E+00 -.369E-02
   -.501E+01 0.706E+01 -.173E+02   0.566E+01 -.736E+01 0.174E+02   -.514E+00 0.307E+00 -.118E-01
   -.519E+00 0.308E+01 -.124E+02   0.678E+00 -.346E+01 0.124E+02   -.461E-01 0.462E+00 0.115E-02
   -.188E+01 0.153E+01 -.189E+02   0.184E+01 -.151E+01 0.189E+02   -.892E-01 0.919E-01 -.370E-01
   -.577E+00 0.125E+01 -.232E+02   0.958E+00 -.130E+01 0.232E+02   -.273E+00 -.938E-01 -.143E-01
   0.663E+01 -.110E+02 -.253E+02   -.695E+01 0.114E+02 0.254E+02   0.290E+00 -.459E+00 -.103E+00
   -.223E+01 -.523E+01 -.222E+02   0.233E+01 0.551E+01 0.222E+02   -.200E+00 -.264E+00 -.723E-02
   0.434E+01 -.276E+01 -.252E+02   -.410E+01 0.291E+01 0.252E+02   -.589E-01 -.137E+00 -.647E-01
   0.269E+01 -.402E+01 -.209E+02   -.271E+01 0.422E+01 0.209E+02   0.598E-01 -.106E+00 0.215E-01
   0.102E+02 -.421E+01 -.128E+02   -.107E+02 0.432E+01 0.129E+02   0.593E+00 -.142E+00 -.442E-01
   0.581E+01 -.116E+01 -.207E+02   -.598E+01 0.158E+01 0.206E+02   0.156E+00 -.318E+00 0.162E-02
   -.201E+01 -.210E+01 -.160E+02   0.200E+01 0.211E+01 0.160E+02   -.501E-01 -.938E-01 -.491E-03
   0.144E+01 -.437E+01 -.832E+01   -.164E+01 0.442E+01 0.836E+01   0.394E-01 -.880E-01 -.144E-01
   0.719E+01 0.316E+01 -.358E+01   -.773E+01 -.302E+01 0.365E+01   0.337E+00 0.774E-01 -.508E-01
   0.429E+01 0.513E+00 -.613E+01   -.431E+01 -.655E+00 0.614E+01   0.176E+00 -.110E-01 0.271E-01
   -.663E+01 0.139E+01 -.609E+01   0.686E+01 -.135E+01 0.611E+01   -.136E+00 0.489E-01 -.199E-01
   -.303E+02 0.295E+02 0.258E+02   0.355E+02 -.295E+02 -.269E+02   -.625E+01 0.285E+00 0.123E+01
   -.710E+02 -.213E+02 0.382E+02   0.794E+02 0.207E+02 -.401E+02   -.858E+01 0.139E+00 0.206E+01
   0.341E+02 -.705E+01 -.147E+02   -.375E+02 0.118E+02 0.152E+02   0.384E+01 -.551E+01 -.280E+00
   0.712E+02 0.662E+01 -.246E+02   -.805E+02 -.629E+01 0.237E+02   0.928E+01 -.100E+00 0.103E+01
   0.417E+02 0.449E+02 -.307E+00   -.464E+02 -.529E+02 -.625E+00   0.538E+01 0.829E+01 0.543E+00
   0.599E+02 -.390E+02 -.311E+02   -.802E+02 0.400E+02 0.307E+02   0.195E+02 -.111E+01 0.413E+00
   -.100E+03 -.329E+02 0.188E+03   0.120E+03 0.339E+02 -.194E+03   -.199E+02 -.221E+01 0.660E+01
   -.155E+02 -.563E+01 0.452E+01   0.136E+02 0.460E+01 -.647E+01   0.264E+01 0.221E+01 0.134E+01
   -.215E+02 -.250E+02 0.282E+03   0.195E+02 0.246E+02 -.274E+03   0.127E+01 0.543E+00 -.816E+01
 -----------------------------------------------------------------------------------------------
   -.437E+01 -.506E+01 -.332E+01   0.220E-12 -.412E-12 0.227E-12   0.448E+01 0.521E+01 0.278E+01
 
 
 POSITION                                       TOTAL-FORCE (eV/Angst)
 -----------------------------------------------------------------------------------
      2.91994     -0.00038      9.87384         0.059998      0.033816     -0.028382
      0.72675      1.22441      9.92842        -0.063603     -0.076646      0.000730
      1.46101     -0.00284      9.90089        -0.146223      0.005182      0.014743
      3.63344      1.25180      9.87197        -0.120752     -0.054269     -0.010674
      2.88093      2.49081      9.85413        -0.090941     -0.000595      0.026316
      0.67335      3.68501      9.95354         0.149968      0.057134     -0.030008
      1.43527      2.46713      9.91315         0.041593      0.094507     -0.016673
      2.74740      4.92990      9.77565        -0.000973     -0.975802      0.127419
      0.63181      6.16857      9.95915        -0.178679     -0.011927     -0.019232
      1.34152      4.93191      9.91459        -0.031203     -0.189519     -0.055602
      3.43482      6.17073      9.59533         2.019519      0.078521     -0.453469
      2.74175      7.41503      9.73811        -0.220602      0.867148     -0.185232
      0.66148      8.64678      9.93250         0.069429     -0.122985     -0.031298
      1.33879      7.40489      9.90795         0.043232      0.167740     -0.103863
      2.87516      9.83657      9.78628        -0.372744      0.089235     -0.010972
      0.71033     11.10217      9.90997        -0.115726      0.102407     -0.000688
      1.42212      9.86095      9.88093         0.216203     -0.018693      0.000015
      3.61499     11.08651      9.81904        -0.024799     -0.008797     -0.072817
      7.24074     -0.00354      9.91027         0.002974      0.159593     -0.013687
      5.08913      1.27198      9.88599         0.206410      0.131576      0.021480
      5.79776      0.00827      9.88473        -0.013820     -0.052920      0.088845
      7.97773      1.22438      9.94352         0.144782     -0.210992     -0.041661
      7.26377      2.45927      9.94823        -0.527729     -0.088910     -0.051988
      8.00842      3.70690      9.97495        -0.217852      0.694748     -0.030981
      7.93735      6.11563      9.96248         0.177999      0.055629     -0.108448
      7.96145      8.59165      9.91282         0.000023     -0.341380     -0.095035
      7.23354      9.86848      9.87093        -0.303731      0.705712      0.023593
      5.06718     11.08153      9.82653         0.424552      0.137127     -0.033423
      7.95588     11.10079      9.90115         0.215357     -0.125461      0.188276
     11.56381     12.32231      9.93771         0.074507      0.013565      0.004184
      9.41494      1.21366      9.95655        -0.133848     -0.093095      0.008264
     10.12122     12.32141      9.93828        -0.066753     -0.001790     -0.015009
     12.30451      1.21546      9.94897         0.050972     -0.089632      0.003555
     11.56490      2.44131      9.97783        -0.146027      0.023486     -0.001177
      9.42635      3.68255      9.99600         0.101210      0.033134      0.016667
     10.13614      2.44078      9.98062         0.109993      0.105721      0.011030
     12.26460      3.67915      9.99073        -0.139806      0.112355     -0.012392
     11.54636      4.91656     10.01537         0.092267     -0.141133     -0.025902
      9.38443      6.14460     10.00695        -0.019109     -0.114841     -0.024243
     10.12176      4.92020     10.01575        -0.112669     -0.002848     -0.008154
     12.24109      6.15974     10.00474         0.181880      0.007983     -0.013986
     11.52931      7.39683      9.99789         0.038212      0.091974     -0.002062
      9.39479      8.62264      9.95229         0.125609     -0.046234      0.036558
     10.09797      7.38758      9.99534        -0.011754      0.096869     -0.027632
     12.24723      8.63302      9.96464        -0.065999     -0.085818      0.006237
     11.54381      9.86783      9.94537        -0.153160     -0.049783      0.015177
      9.39341     11.09673      9.92304        -0.185071      0.224025      0.015515
     10.11069      9.86247      9.93812         0.155304     -0.152703      0.036311
     12.28619     11.09357      9.92946         0.079991      0.097054     -0.002339
      3.53320      3.75126      9.75585        -1.356074      0.388422      0.219272
      3.52535      8.57714      9.63602        -0.618835     -0.526383      0.224701
      5.83758      2.49940      9.91080         0.648541     -1.069415      0.176912
      7.23396      7.36981      9.87711         0.478430      0.246283      0.178625
      5.81658      9.86357      9.77546         1.064622      0.676375     -0.362391
      7.29568      4.87755      9.95100         0.883323     -0.231548      0.039548
      4.73784      6.17572      9.29697        -1.863090     -1.406543      0.385763
      5.34436      4.36564      9.77942         0.201619      0.501760     -0.624309
      5.45278      8.00323      9.13130        -0.756947      0.291581      0.643993
 -----------------------------------------------------------------------------------
    total drift:                               -0.005202     -0.000526     -0.003747


--------------------------------------------------------------------------------------------------------



  FREE ENERGIE OF THE ION-ELECTRON SYSTEM (eV)
  ---------------------------------------------------
  free  energy   TOTEN  =      -607.94000432 eV

  energy  without entropy=     -607.93998756  energy(sigma->0) =     -607.93999594
 


--------------------------------------------------------------------------------------------------------


    POTLOK:  cpu time    3.2989: real time    3.2992


--------------------------------------------------------------------------------------------------------


 stress matrix after NEB project (eV)
    -42.23144      2.84513      1.39155
      2.84660    -36.84928      0.50582
      1.38350      0.50830     -0.86487
  FORCES: max atom, RMS     2.366069    0.638253
  FORCE total and by dimension    4.860789    2.019519
  Stress total and by dimension   56.237662   42.231443
 writing wavefunctions
     LOOP+:  cpu time43754.6440: real time43758.9258
    4ORBIT:  cpu time    0.0000: real time    0.0000
 


 total charge     
 
# of ion       s       p       d       tot
------------------------------------------
    1        0.858   1.732   0.000   2.591
    2        0.863   1.757   0.000   2.620
    3        0.862   1.742   0.000   2.603
    4        0.861   1.718   0.000   2.579
    5        0.859   1.742   0.000   2.602
    6        0.867   1.774   0.000   2.640
    7        0.863   1.744   0.000   2.607
    8        0.882   1.789   0.000   2.671
    9        0.869   1.787   0.000   2.656
   10        0.875   1.784   0.000   2.659
   11        0.889   1.740   0.000   2.629
   12        0.883   1.795   0.000   2.678
   13        0.867   1.771   0.000   2.638
   14        0.875   1.787   0.000   2.662
   15        0.859   1.729   0.000   2.588
   16        0.863   1.754   0.000   2.617
   17        0.863   1.740   0.000   2.603
   18        0.863   1.719   0.000   2.581
   19        0.863   1.753   0.000   2.616
   20        0.856   1.724   0.000   2.580
   21        0.861   1.724   0.000   2.585
   22        0.866   1.757   0.000   2.623
   23        0.868   1.754   0.000   2.622
   24        0.868   1.726   0.000   2.595
   25        0.853   1.692   0.000   2.545
   26        0.870   1.722   0.000   2.592
   27        0.869   1.740   0.000   2.608
   28        0.859   1.729   0.000   2.587
   29        0.867   1.756   0.000   2.622
   30        0.865   1.763   0.000   2.629
   31        0.865   1.770   0.000   2.635
   32        0.866   1.761   0.000   2.626
   33        0.864   1.758   0.000   2.622
   34        0.866   1.772   0.000   2.638
   35        0.868   1.792   0.000   2.661
   36        0.867   1.767   0.000   2.634
   37        0.868   1.765   0.000   2.633
   38        0.866   1.778   0.000   2.644
   39        0.863   1.759   0.000   2.622
   40        0.872   1.765   0.000   2.637
   41        0.871   1.780   0.000   2.651
   42        0.865   1.769   0.000   2.634
   43        0.867   1.769   0.000   2.637
   44        0.867   1.765   0.000   2.632
   45        0.867   1.765   0.000   2.632
   46        0.866   1.768   0.000   2.634
   47        0.866   1.766   0.000   2.632
   48        0.866   1.760   0.000   2.626
   49        0.863   1.756   0.000   2.620
   50        0.877   1.665   0.000   2.542
   51        0.880   1.657   0.000   2.537
   52        0.870   1.656   0.000   2.526
   53        0.870   1.665   0.000   2.535
   54        0.877   1.668   0.000   2.545
   55        1.235   2.651   0.000   3.886
   56        1.259   2.573   0.000   3.832
   57        0.496   0.642   6.044   7.182
   58        0.496   0.641   4.287   5.424
--------------------------------------------------
tot         50.310 100.846  10.331 161.487
 


 magnetization (x)
 
# of ion       s       p       d       tot
------------------------------------------
    1        0.002   0.015   0.000   0.017
    2        0.001   0.011   0.000   0.012
    3       -0.001  -0.006   0.000  -0.007
    4       -0.002  -0.030   0.000  -0.032
    5        0.001   0.012   0.000   0.013
    6        0.001   0.008   0.000   0.009
    7       -0.001  -0.009   0.000  -0.010
    8        0.002   0.017   0.000   0.019
    9        0.001   0.020   0.000   0.022
   10       -0.001  -0.013   0.000  -0.014
   11        0.004   0.030   0.000   0.035
   12        0.001   0.016   0.000   0.017
   13        0.001   0.009   0.000   0.009
   14       -0.002  -0.015   0.000  -0.017
   15        0.001   0.016   0.000   0.017
   16        0.001   0.011   0.000   0.012
   17       -0.002  -0.012   0.000  -0.014
   18       -0.002  -0.031   0.000  -0.034
   19        0.002   0.022   0.000   0.024
   20        0.002   0.024   0.000   0.026
   21       -0.002  -0.018   0.000  -0.021
   22       -0.002  -0.020   0.000  -0.022
   23        0.004   0.035   0.000   0.039
   24       -0.000  -0.012   0.000  -0.013
   25       -0.000  -0.007   0.000  -0.007
   26        0.001  -0.007   0.000  -0.006
   27        0.004   0.030   0.000   0.034
   28        0.003   0.028   0.000   0.030
   29       -0.002  -0.018   0.000  -0.020
   30        0.001   0.009   0.000   0.010
   31        0.002   0.021   0.000   0.022
   32       -0.001  -0.011   0.000  -0.012
   33       -0.001  -0.010   0.000  -0.011
   34        0.001   0.013   0.000   0.014
   35        0.001   0.010   0.000   0.011
   36       -0.001  -0.014   0.000  -0.015
   37       -0.001  -0.010   0.000  -0.010
   38        0.001   0.014   0.000   0.015
   39       -0.000   0.008   0.000   0.008
   40       -0.001  -0.008   0.000  -0.008
   41       -0.001  -0.009   0.000  -0.010
   42        0.001   0.012   0.000   0.013
   43        0.000   0.010   0.000   0.010
   44       -0.001  -0.006   0.000  -0.007
   45       -0.001  -0.008   0.000  -0.009
   46        0.001   0.013   0.000   0.014
   47        0.002   0.022   0.000   0.023
   48       -0.001  -0.013   0.000  -0.014
   49       -0.001  -0.010   0.000  -0.011
   50       -0.017  -0.070   0.000  -0.087
   51       -0.020  -0.081   0.000  -0.101
   52       -0.016  -0.088   0.000  -0.104
   53       -0.017  -0.063   0.000  -0.080
   54       -0.016  -0.077   0.000  -0.093
   55       -0.000   0.022   0.000   0.021
   56       -0.005  -0.022   0.000  -0.027
   57        0.061   0.021   2.887   2.970
   58        0.059   0.023   2.936   3.018
--------------------------------------------------
tot          0.042  -0.196   5.823   5.669
 

 total amount of memory used by VASP MPI-rank0   180140. kBytes
=======================================================================

   base      :      30000. kBytes
   nonl-proj :       5322. kBytes
   fftplans  :      12974. kBytes
   grid      :      33177. kBytes
   one-center:         62. kBytes
   HF        :         23. kBytes
   nonlr-proj:      22151. kBytes
   wavefun   :      76431. kBytes
 
  
  
 General timing and accounting informations for this job:
 ========================================================
  
                  Total CPU time used (sec):    43841.219
                            User time (sec):    43757.967
                          System time (sec):       83.252
                         Elapsed time (sec):    43848.760
  
                   Maximum memory used (kb):      414824.
                   Average memory used (kb):           0.
  
                          Minor page faults:     11343037
                          Major page faults:            1
                 Voluntary context switches:         1457
