 vasp.5.4.4.18Apr17-6-g9f103f2a35 (build Feb 25 2019 10:51:38) complex          
  
 executed on             LinuxIFC date 2021.08.09  05:27:29
 running on   32 total cores
 distrk:  each k-point on   32 cores,    1 groups
 distr:  one band on NCORES_PER_BAND=  32 cores,    1 groups


--------------------------------------------------------------------------------------------------------


 INCAR:
 POTCAR:    PAW_PBE C 08Apr2002                   
 POTCAR:    PAW_PBE N 08Apr2002                   
 POTCAR:    PAW_PBE Ni 02Aug2007                  
 POTCAR:    PAW_PBE Fe 06Sep2000                  

 ----------------------------------------------------------------------------- 
|                                                                             |
|           W    W    AA    RRRRR   N    N  II  N    N   GGGG   !!!           |
|           W    W   A  A   R    R  NN   N  II  NN   N  G    G  !!!           |
|           W    W  A    A  R    R  N N  N  II  N N  N  G       !!!           |
|           W WW W  AAAAAA  RRRRR   N  N N  II  N  N N  G  GGG   !            |
|           WW  WW  A    A  R   R   N   NN  II  N   NN  G    G                |
|           W    W  A    A  R    R  N    N  II  N    N   GGGG   !!!           |
|                                                                             |
|      For optimal performance we recommend to set                            |
|        NCORE= 4 - approx SQRT( number of cores)                             |
|      NCORE specifies how many cores store one orbital (NPAR=cpu/NCORE).     |
|      This setting can  greatly improve the performance of VASP for DFT.     |
|      The default,   NCORE=1            might be grossly inefficient         |
|      on modern multi-core architectures or massively parallel machines.     |
|      Do your own testing !!!!                                               |
|      Unfortunately you need to use the default for GW and RPA calculations. |
|      (for HF NCORE is supported but not extensively tested yet)             |
|                                                                             |
 ----------------------------------------------------------------------------- 

 POTCAR:    PAW_PBE C 08Apr2002                   
   VRHFIN =C: s2p2                                                              
   LEXCH  = PE                                                                  
   EATOM  =   147.1560 eV,   10.8157 Ry                                         
                                                                                
   TITEL  = PAW_PBE C 08Apr2002                                                 
   LULTRA =        F    use ultrasoft PP ?                                      
   IUNSCR =        1    unscreen: 0-lin 1-nonlin 2-no                           
   RPACOR =    1.200    partial core radius                                     
   POMASS =   12.011; ZVAL   =    4.000    mass and valenz                      
   RCORE  =    1.500    outmost cutoff radius                                   
   RWIGS  =    1.630; RWIGS  =    0.863    wigner-seitz radius (au A)           
   ENMAX  =  400.000; ENMIN  =  300.000 eV                                      
   ICORE  =        2    local potential                                         
   LCOR   =        T    correct aug charges                                     
   LPAW   =        T    paw PP                                                  
   EAUG   =  644.873                                                            
   DEXC   =    0.000                                                            
   RMAX   =    1.529    core radius for proj-oper                               
   RAUG   =    1.300    factor for augmentation sphere                          
   RDEP   =    1.501    radius for radial grids                                 
   RDEPT  =    1.300    core radius for aug-charge                              
                                                                                
   Atomic configuration                                                         
    4 entries                                                                   
     n  l   j            E        occ.                                          
     1  0  0.50      -273.3789   2.0000                                         
     2  0  0.50       -13.7508   2.0000                                         
     2  1  0.50        -5.2854   2.0000                                         
     3  2  1.50        -5.4423   0.0000                                         
   Description                                                                  
     l       E           TYP  RCUT    TYP  RCUT                                 
     0    -13.7508458     23  1.200                                             
     0     -8.2022199     23  1.200                                             
     1     -5.2854383     23  1.500                                             
     1     34.0145650     23  1.500                                             
     2     -5.4423304      7  1.500                                             
  local pseudopotential read in
  partial core-charges read in
  partial kinetic energy density read in
  atomic valenz-charges read in
  non local Contribution for L=           0  read in
    real space projection operators read in
  non local Contribution for L=           0  read in
    real space projection operators read in
  non local Contribution for L=           1  read in
    real space projection operators read in
  non local Contribution for L=           1  read in
    real space projection operators read in
    PAW grid and wavefunctions read in
 
   number of l-projection  operators is LMAX  =           4
   number of lm-projection operators is LMMAX =           8
 
 POTCAR:    PAW_PBE N 08Apr2002                   
   VRHFIN =N: s2p3                                                              
   LEXCH  = PE                                                                  
   EATOM  =   264.5486 eV,   19.4438 Ry                                         
                                                                                
   TITEL  = PAW_PBE N 08Apr2002                                                 
   LULTRA =        F    use ultrasoft PP ?                                      
   IUNSCR =        1    unscreen: 0-lin 1-nonlin 2-no                           
   RPACOR =    1.200    partial core radius                                     
   POMASS =   14.001; ZVAL   =    5.000    mass and valenz                      
   RCORE  =    1.500    outmost cutoff radius                                   
   RWIGS  =    1.400; RWIGS  =    0.741    wigner-seitz radius (au A)           
   ENMAX  =  400.000; ENMIN  =  300.000 eV                                      
   ICORE  =        2    local potential                                         
   LCOR   =        T    correct aug charges                                     
   LPAW   =        T    paw PP                                                  
   EAUG   =  627.112                                                            
   DEXC   =    0.000                                                            
   RMAX   =    1.529    core radius for proj-oper                               
   RAUG   =    1.300    factor for augmentation sphere                          
   RDEP   =    1.514    radius for radial grids                                 
   RDEPT  =    1.338    core radius for aug-charge                              
                                                                                
   Atomic configuration                                                         
    4 entries                                                                   
     n  l   j            E        occ.                                          
     1  0  0.50      -384.7179   2.0000                                         
     2  0  0.50       -18.5828   2.0000                                         
     2  1  0.50        -7.0898   3.0000                                         
     3  2  1.50        -6.8029   0.0000                                         
   Description                                                                  
     l       E           TYP  RCUT    TYP  RCUT                                 
     0    -18.5828119     23  1.200                                             
     0    -13.5018863     23  1.200                                             
     1     -7.0897853     23  1.500                                             
     1      9.5240782     23  1.500                                             
     2     -6.8029130      7  1.500                                             
  local pseudopotential read in
  partial core-charges read in
  partial kinetic energy density read in
  atomic valenz-charges read in
  non local Contribution for L=           0  read in
    real space projection operators read in
  non local Contribution for L=           0  read in
    real space projection operators read in
  non local Contribution for L=           1  read in
    real space projection operators read in
  non local Contribution for L=           1  read in
    real space projection operators read in
    PAW grid and wavefunctions read in
 
   number of l-projection  operators is LMAX  =           4
   number of lm-projection operators is LMMAX =           8
 
 POTCAR:    PAW_PBE Ni 02Aug2007                  
   VRHFIN =Ni:                                                                  
   LEXCH  = PE                                                                  
   EATOM  =  1077.6739 eV,   79.2068 Ry                                         
                                                                                
   TITEL  = PAW_PBE Ni 02Aug2007                                                
   LULTRA =        F    use ultrasoft PP ?                                      
   IUNSCR =        1    unscreen: 0-lin 1-nonlin 2-no                           
   RPACOR =    2.000    partial core radius                                     
   POMASS =   58.690; ZVAL   =   10.000    mass and valenz                      
   RCORE  =    2.300    outmost cutoff radius                                   
   RWIGS  =    2.430; RWIGS  =    1.286    wigner-seitz radius (au A)           
   ENMAX  =  269.532; ENMIN  =  202.149 eV                                      
   RCLOC  =    1.201    cutoff for local pot                                    
   LCOR   =        T    correct aug charges                                     
   LPAW   =        T    paw PP                                                  
   EAUG   =  544.565                                                            
   DEXC   =    0.000                                                            
   RMAX   =    2.357    core radius for proj-oper                               
   RAUG   =    1.300    factor for augmentation sphere                          
   RDEP   =    2.390    radius for radial grids                                 
   RDEPT  =    1.838    core radius for aug-charge                              
                                                                                
   Atomic configuration                                                         
    9 entries                                                                   
     n  l   j            E        occ.                                          
     1  0  0.50     -8206.4253   2.0000                                         
     2  0  0.50      -976.1748   2.0000                                         
     2  1  1.50      -839.0571   6.0000                                         
     3  0  0.50      -105.9991   2.0000                                         
     3  1  1.50       -66.4603   6.0000                                         
     3  2  2.50        -4.6458   9.0000                                         
     4  0  0.50        -4.4926   1.0000                                         
     4  1  1.50        -4.0817   0.0000                                         
     4  3  2.50        -1.3606   0.0000                                         
   Description                                                                  
     l       E           TYP  RCUT    TYP  RCUT                                 
     2     -4.6457903     23  2.300                                             
     2     -6.0063729     23  2.300                                             
     0     -4.4925590     23  2.300                                             
     0      5.0102601     23  2.300                                             
     1     -2.7211652     23  2.300                                             
     1     16.5183231     23  2.300                                             
  local pseudopotential read in
  partial core-charges read in
  partial kinetic energy density read in
  atomic valenz-charges read in
  non local Contribution for L=           2  read in
    real space projection operators read in
  non local Contribution for L=           2  read in
    real space projection operators read in
  non local Contribution for L=           0  read in
    real space projection operators read in
  non local Contribution for L=           0  read in
    real space projection operators read in
  non local Contribution for L=           1  read in
    real space projection operators read in
  non local Contribution for L=           1  read in
    real space projection operators read in
    PAW grid and wavefunctions read in
 
   number of l-projection  operators is LMAX  =           6
   number of lm-projection operators is LMMAX =          18
 
 POTCAR:    PAW_PBE Fe 06Sep2000                  
   VRHFIN =Fe:  d7 s1                                                           
   LEXCH  = PE                                                                  
   EATOM  =   594.3153 eV,   43.6809 Ry                                         
                                                                                
   TITEL  = PAW_PBE Fe 06Sep2000                                                
   LULTRA =        F    use ultrasoft PP ?                                      
   IUNSCR =        1    unscreen: 0-lin 1-nonlin 2-no                           
   RPACOR =    2.000    partial core radius                                     
   POMASS =   55.847; ZVAL   =    8.000    mass and valenz                      
   RCORE  =    2.300    outmost cutoff radius                                   
   RWIGS  =    2.460; RWIGS  =    1.302    wigner-seitz radius (au A)           
   ENMAX  =  267.882; ENMIN  =  200.911 eV                                      
   RCLOC  =    1.701    cutoff for local pot                                    
   LCOR   =        T    correct aug charges                                     
   LPAW   =        T    paw PP                                                  
   EAUG   =  511.368                                                            
   DEXC   =    0.000                                                            
   RMAX   =    2.356    core radius for proj-oper                               
   RAUG   =    1.300    factor for augmentation sphere                          
   RDEP   =    2.442    radius for radial grids                                 
   RDEPT  =    1.890    core radius for aug-charge                              
                                                                                
   Atomic configuration                                                         
    9 entries                                                                   
     n  l   j            E        occ.                                          
     1  0  0.50     -6993.8440   2.0000                                         
     2  0  0.50      -814.6047   2.0000                                         
     2  1  1.50      -693.3689   6.0000                                         
     3  0  0.50       -89.4732   2.0000                                         
     3  1  1.50       -55.6373   6.0000                                         
     3  2  2.50        -3.8151   7.0000                                         
     4  0  0.50        -4.2551   1.0000                                         
     4  1  1.50        -3.4015   0.0000                                         
     4  3  2.50        -1.3606   0.0000                                         
   Description                                                                  
     l       E           TYP  RCUT    TYP  RCUT                                 
     2     -3.8151135     23  2.300                                             
     2     -5.1756961     23  2.300                                             
     0     -4.2550963     23  2.300                                             
     0      7.2035603     23  2.300                                             
     1     -2.7211652     23  2.300                                             
     1     18.4316424     23  2.300                                             
  local pseudopotential read in
  partial core-charges read in
  partial kinetic energy density read in
  atomic valenz-charges read in
  non local Contribution for L=           2  read in
    real space projection operators read in
  non local Contribution for L=           2  read in
    real space projection operators read in
  non local Contribution for L=           0  read in
    real space projection operators read in
  non local Contribution for L=           0  read in
    real space projection operators read in
  non local Contribution for L=           1  read in
    real space projection operators read in
  non local Contribution for L=           1  read in
    real space projection operators read in
    PAW grid and wavefunctions read in
 
   number of l-projection  operators is LMAX  =           6
   number of lm-projection operators is LMMAX =          18
 

 ----------------------------------------------------------------------------- 
|                                                                             |
|  ADVICE TO THIS USER RUNNING 'VASP/VAMP'   (HEAR YOUR MASTER'S VOICE ...):  |
|                                                                             |
|      You have a (more or less) 'large supercell' and for larger cells       |
|      it might be more efficient to use real space projection opertators     |
|      So try LREAL= Auto  in the INCAR   file.                               |
|      Mind:          For very  accurate calculation you might also keep the  |
|      reciprocal projection scheme          (i.e. LREAL=.FALSE.)             |
|                                                                             |
 ----------------------------------------------------------------------------- 

  PAW_PBE C 08Apr2002                   :
 energy of atom  1       EATOM= -147.1560
 kinetic energy error for atom=    0.0076 (will be added to EATOM!!)
  PAW_PBE N 08Apr2002                   :
 energy of atom  2       EATOM= -264.5486
 kinetic energy error for atom=    0.0138 (will be added to EATOM!!)
  PAW_PBE Ni 02Aug2007                  :
 energy of atom  3       EATOM=-1077.6739
 kinetic energy error for atom=    0.0030 (will be added to EATOM!!)
  PAW_PBE Fe 06Sep2000                  :
 energy of atom  4       EATOM= -594.3153
 kinetic energy error for atom=    0.0026 (will be added to EATOM!!)
 
 
 POSCAR:  C  N Ni Fe                             
  positions in cartesian coordinates
  No initial velocities read in
 exchange correlation table for  LEXCH =        8
   RHO(1)=    0.500       N(1)  =     2000
   RHO(2)=  100.500       N(2)  =     4000

 VTST: version 3.2, (02/03/18)

 CHAIN: initializing optimizer
 
 OPT: Using VASP Conjugate-Gradient optimizer
 CHAIN: Read ICHAIN            0
 
 POSCAR:  C  N Ni Fe                             
  positions in cartesian coordinates
  No initial velocities read in
 


--------------------------------------------------------------------------------------------------------


 ion  position               nearest neighbor table
   1  0.225  0.000  0.500-  18 1.44   4 1.45   3 1.47
   2  0.057  0.100  0.500-   3 1.43   7 1.43  33 1.45
   3  0.113  0.000  0.500-   2 1.43  16 1.43   1 1.47
   4  0.280  0.102  0.500-   1 1.45   5 1.45  20 1.46
   5  0.223  0.203  0.500-  50 1.43   4 1.45   7 1.45
   6  0.052  0.298  0.500-  10 1.41  37 1.43   7 1.44
   7  0.111  0.200  0.500-   2 1.43   6 1.44   5 1.45
   8  0.211  0.399  0.500-  10 1.41  50 1.41  11 1.42
   9  0.049  0.500  0.500-  41 1.41  14 1.42  10 1.43
  10  0.103  0.399  0.500-   8 1.41   6 1.41   9 1.43
  11  0.263  0.500  0.499-  56 1.32   8 1.42  12 1.43
  12  0.210  0.601  0.500-  51 1.40  14 1.41  11 1.43
  13  0.051  0.702  0.500-  14 1.41  45 1.43  17 1.44
  14  0.102  0.600  0.500-  12 1.41  13 1.41   9 1.42
  15  0.221  0.798  0.500-  51 1.42  17 1.45  18 1.46
  16  0.056  0.901  0.500-  17 1.43   3 1.43  49 1.45
  17  0.110  0.800  0.500-  16 1.43  13 1.44  15 1.45
  18  0.280  0.898  0.500-   1 1.44  15 1.46  28 1.47
  19  0.557  0.001  0.500-  22 1.43  29 1.43  21 1.45
  20  0.392  0.104  0.500-  52 1.44  21 1.45   4 1.46
  21  0.446  0.001  0.500-  19 1.45  20 1.45  28 1.46
  22  0.613  0.100  0.500-  23 1.43  19 1.43  31 1.44
  23  0.559  0.200  0.500-  52 1.42  22 1.43  24 1.46
  24  0.615  0.302  0.500-  55 1.36  35 1.43  23 1.46
  25  0.612  0.497  0.500-  55 1.40  53 1.44  39 1.45
  26  0.616  0.698  0.500-  43 1.42  53 1.42  27 1.46
  27  0.559  0.801  0.500-  29 1.42  54 1.42  26 1.46
  28  0.392  0.898  0.500-  54 1.44  21 1.46  18 1.47
  29  0.614  0.901  0.500-  27 1.42  19 1.43  47 1.44
  30  0.890  0.000  0.500-  33 1.42  49 1.42  32 1.44
  31  0.724  0.099  0.500-  36 1.42  32 1.42  22 1.44
  32  0.780  0.000  0.500-  47 1.42  31 1.42  30 1.44
  33  0.946  0.100  0.500-  30 1.42  34 1.43   2 1.45
  34  0.889  0.199  0.500-  37 1.42  36 1.43  33 1.43
  35  0.725  0.300  0.500-  40 1.42  24 1.43  36 1.43
  36  0.779  0.199  0.500-  31 1.42  35 1.43  34 1.43
  37  0.942  0.299  0.500-  34 1.42  38 1.43   6 1.43
  38  0.888  0.399  0.500-  41 1.42  40 1.43  37 1.43
  39  0.723  0.499  0.500-  40 1.43  44 1.44  25 1.45
  40  0.779  0.400  0.500-  35 1.42  38 1.43  39 1.43
  41  0.941  0.500  0.500-   9 1.41  38 1.42  42 1.43
  42  0.887  0.600  0.500-  44 1.43  41 1.43  45 1.43
  43  0.724  0.700  0.500-  26 1.42  44 1.42  48 1.43
  44  0.778  0.600  0.500-  43 1.42  42 1.43  39 1.44
  45  0.942  0.701  0.500-  46 1.42  13 1.43  42 1.43
  46  0.889  0.801  0.500-  45 1.42  48 1.43  49 1.43
  47  0.724  0.901  0.500-  32 1.42  48 1.43  29 1.44
  48  0.779  0.801  0.500-  47 1.43  46 1.43  43 1.43
  49  0.946  0.901  0.500-  30 1.42  46 1.43  16 1.45
  50  0.273  0.305  0.499-   8 1.41   5 1.43  57 1.88
  51  0.271  0.695  0.500-  12 1.40  15 1.42  58 1.98
  52  0.450  0.204  0.499-  23 1.42  20 1.44  57 1.88
  53  0.559  0.600  0.499-  26 1.42  25 1.44  58 1.96
  54  0.450  0.799  0.500-  27 1.42  28 1.44  58 1.96
  55  0.561  0.397  0.499-  24 1.36  25 1.40  57 2.04
  56  0.365  0.499  0.499-  11 1.32  58 1.91  57 1.93
  57  0.411  0.351  0.499-  52 1.88  50 1.88  56 1.93  55 2.04
  58  0.415  0.644  0.499-  56 1.91  53 1.96  54 1.96  51 1.98
 
  LATTYP: Found a triclinic cell.
 ALAT       =    34.1743439790
 B/A-ratio  =     0.3606900670
 C/A-ratio  =     1.2162866421
 COS(alpha) =     0.0000178925
 COS(beta)  =     0.6682661665
 COS(gamma) =     0.7214689114
  
  Lattice vectors:
  
 A1 = ( -13.0634009038,  24.6589473032, -19.7273835346)
 A2 = (   0.0023201281,  12.3263461916,   0.0004756488)
 A3 = ( -13.0721122997,   0.0047267737, -39.4567538959)


Analysis of symmetry for initial positions (statically):
=====================================================================
 Subroutine PRICEL returns:
 Original cell was already a primitive cell.
 

 Routine SETGRP: Setting up the symmetry group for a 
 triclinic supercell.


 Subroutine GETGRP returns: Found  1 space group operations
 (whereof  1 operations were pure point group operations)
 out of a pool of  2 trial point group operations.


The static configuration has the point symmetry C_1 .


Analysis of symmetry for dynamics (positions and initial velocities):
=====================================================================
 Subroutine PRICEL returns:
 Original cell was already a primitive cell.
 

 Routine SETGRP: Setting up the symmetry group for a 
 triclinic supercell.


 Subroutine GETGRP returns: Found  1 space group operations
 (whereof  1 operations were pure point group operations)
 out of a pool of  2 trial point group operations.


The dynamic configuration has the point symmetry C_1 .


Analysis of structural, dynamic, and magnetic symmetry:
=====================================================================
 Subroutine PRICEL returns:
 Original cell was already a primitive cell.
 

 Routine SETGRP: Setting up the symmetry group for a 
 triclinic supercell.


 Subroutine GETGRP returns: Found  1 space group operations
 (whereof  1 operations were pure point group operations)
 out of a pool of  2 trial point group operations.


The magnetic configuration has the point symmetry C_1 .


 Subroutine INISYM returns: Found  1 space group operations
 (whereof  1 operations are pure point group operations),
 and found     1 'primitive' translations

 
 
 KPOINTS: KPOINTS created by Atomic Simulation Env

Automatic generation of k-mesh.
Space group operators:
 irot       det(A)        alpha          n_x          n_y          n_z        tau_x        tau_y        tau_z
    1     1.000000     0.000000     1.000000     0.000000     0.000000     0.000000     0.000000     0.000000
 
 Subroutine IBZKPT returns following result:
 ===========================================
 
 Found      2 irreducible k-points:
 
 Following reciprocal coordinates:
            Coordinates               Weight
  0.250000  0.250000  0.000000      2.000000
 -0.250000  0.250000 -0.000000      2.000000
 
 Following cartesian coordinates:
            Coordinates               Weight
  0.019149  0.020278 -0.000006      2.000000
 -0.019125  0.020285  0.000002      2.000000
 
 
 Subroutine IBZKPT_HF returns following result:
 ==============================================
 
 Found      4 k-points in 1st BZ
 the following      4 k-points will be used (e.g. in the exchange kernel)
 Following reciprocal coordinates:   # in IRBZ
  0.250000  0.250000  0.000000    0.25000000   1 t-inv F
 -0.250000  0.250000 -0.000000    0.25000000   2 t-inv F
 -0.250000 -0.250000 -0.000000    0.25000000   1 t-inv T
  0.250000 -0.250000  0.000000    0.25000000   2 t-inv T


--------------------------------------------------------------------------------------------------------




 Dimension of arrays:
   k-points           NKPTS =      2   k-points in BZ     NKDIM =      4   number of bands    NBANDS=    156
   number of dos      NEDOS =    301   number of ions     NIONS =     58
   non local maximal  LDIM  =      6   non local SUM 2l+1 LMDIM =     18
   total plane-waves  NPLWV = ******
   max r-space proj   IRMAX =      1   max aug-charges    IRDMAX=  14148
   dimension x,y,z NGX =    96 NGY =   90 NGZ =  144
   dimension x,y,z NGXF=   192 NGYF=  180 NGZF=  288
   support grid    NGXF=   192 NGYF=  180 NGZF=  288
   ions per type =              54   2   1   1
   NGX,Y,Z   is equivalent  to a cutoff of  12.22, 12.14, 12.13 a.u.
   NGXF,Y,Z  is equivalent  to a cutoff of  24.43, 24.28, 24.27 a.u.

 SYSTEM =  unknown system                          
 POSCAR =   C  N Ni Fe                             

 Startparameter for this run:
   NWRITE =      2    write-flag & timer
   PREC   = accura    normal or accurate (medium, high low for compatibility)
   ISTART =      1    job   : 0-new  1-cont  2-samecut
   ICHARG =      0    charge: 1-file 2-atom 10-const
   ISPIN  =      2    spin polarized calculation?
   LNONCOLLINEAR =      F non collinear calculations
   LSORBIT =      F    spin-orbit coupling
   INIWAV =      1    electr: 0-lowe 1-rand  2-diag
   LASPH  =      T    aspherical Exc in radial PAW
   METAGGA=      F    non-selfconsistent MetaGGA calc.

 Electronic Relaxation 1
   ENCUT  =  500.0 eV  36.75 Ry    6.06 a.u.  23.82 22.47 35.97*2*pi/ulx,y,z
   ENINI  =  500.0     initial cutoff
   ENAUG  =  644.9 eV  augmentation charge cutoff
   NELM   =    250;   NELMIN=  2; NELMDL=  0     # of ELM steps 
   EDIFF  = 0.1E-03   stopping-criterion for ELM
   LREAL  =      F    real-space projection
   NLSPLINE    = F    spline interpolate recip. space projectors
   LCOMPAT=      F    compatible to vasp.4.4
   GGA_COMPAT  = T    GGA compatible to vasp.4.4-vasp.4.6
   LMAXPAW     = -100 max onsite density
   LMAXMIX     =    2 max onsite mixed and CHGCAR
   VOSKOWN=      0    Vosko Wilk Nusair interpolation
   ROPT   =    0.00000   0.00000   0.00000   0.00000
 Ionic relaxation
   EDIFFG = -.3E-01   stopping-criterion for IOM
   NSW    =      0    number of steps for IOM
   NBLOCK =      1;   KBLOCK =      1    inner block; outer block 
   IBRION =     -1    ionic relax: 0-MD 1-quasi-New 2-CG
   NFREE  =      1    steps in history (QN), initial steepest desc. (CG)
   ISIF   =      2    stress and relaxation
   IWAVPR =     10    prediction:  0-non 1-charg 2-wave 3-comb
   ISYM   =      3    0-nonsym 1-usesym 2-fastsym
   LCORR  =      T    Harris-Foulkes like correction to forces

   POTIM  = 0.5000    time-step for ionic-motion
   TEIN   =    0.0    initial temperature
   TEBEG  =    0.0;   TEEND  =   0.0 temperature during run
   SMASS  =  -3.00    Nose mass-parameter (am)
   estimated Nose-frequenzy (Omega)   =  0.10E-29 period in steps =****** mass=  -0.390E-26a.u.
   SCALEE = 1.0000    scale energy and forces
   NPACO  =    256;   APACO  = 16.0  distance and # of slots for P.C.
   PSTRESS=    0.0 pullay stress

  Mass of Ions in am
   POMASS =  12.01 14.00 58.69 55.85
  Ionic Valenz
   ZVAL   =   4.00  5.00 10.00  8.00
  Atomic Wigner-Seitz radii
   RWIGS  =  -1.00 -1.00 -1.00 -1.00
  virtual crystal weights 
   VCA    =   1.00  1.00  1.00  1.00
   NELECT =     244.0000    total number of electrons
   NUPDOWN=      -1.0000    fix difference up-down

 DOS related values:
   EMIN   =  10.00;   EMAX   =-10.00  energy-range for DOS
   EFERMI =   0.00
   ISMEAR =     0;   SIGMA  =   0.10  broadening in eV -4-tet -1-fermi 0-gaus

 Electronic relaxation 2 (details)
   IALGO  =     53    algorithm
   LDIAG  =      T    sub-space diagonalisation (order eigenvalues)
   LSUBROT=      F    optimize rotation matrix (better conditioning)
   TURBO    =      0    0=normal 1=particle mesh
   IRESTART =      0    0=no restart 2=restart with 2 vectors
   NREBOOT  =      0    no. of reboots
   NMIN     =      0    reboot dimension
   EREF     =   0.00    reference energy to select bands
   IMIX   =      4    mixing-type and parameters
     AMIX     =   0.40;   BMIX     =  1.00
     AMIX_MAG =   1.60;   BMIX_MAG =  1.00
     AMIN     =   0.10
     WC   =   100.;   INIMIX=   1;  MIXPRE=   1;  MAXMIX= -45

 Intra band minimization:
   WEIMIN = 0.0000     energy-eigenvalue tresh-hold
   EBREAK =  0.16E-06  absolut break condition
   DEPER  =   0.30     relativ break condition  

   TIME   =   0.20     timestep for ELM

  volume/ion in A,a.u.               =      54.77       369.63
  Fermi-wavevector in a.u.,A,eV,Ry     =   0.695885  1.315032  6.588702  0.484256
  Thomas-Fermi vector in A             =   1.778782
 
 Write flags
   LWAVE        =      T    write WAVECAR
   LDOWNSAMPLE  =      F    k-point downsampling of WAVECAR
   LCHARG       =      T    write CHGCAR
   LVTOT        =      F    write LOCPOT, total local potential
   LVHAR        =      F    write LOCPOT, Hartree potential only
   LELF         =      F    write electronic localiz. function (ELF)
   LORBIT       =     11    0 simple, 1 ext, 2 COOP (PROOUT), +10 PAW based schemes


 Dipole corrections
   LMONO  =      F    monopole corrections only (constant potential shift)
   LDIPOL =      T    correct potential (dipole corrections)
   IDIPOL =      3    1-x, 2-y, 3-z, 4-all directions 
   EPSILON=  1.0000000 bulk dielectric constant

 Exchange correlation treatment:
   GGA     =    PE    GGA type
   LEXCH   =     8    internal setting for exchange type
   VOSKOWN=      0    Vosko Wilk Nusair interpolation
   EXXOEP  =     0    0=HF, 1=EXX-LHF (local Hartree Fock) 2=EXX OEP
   LHFCALC =     T    Hartree Fock is set to
   LSYMGRAD=     F    symmetrize gradient (conserves proper symmetry)
   PRECFOCK=normal    Normal, Fast or Accurate (Low or Medium for compatibility)
   LRHFCALC=     F    long range Hartree Fock
   LRSCOR  =     F    long range correlation only (use DFT for short range part)
   LTHOMAS =     F    Thomas Fermi screening in HF
   LMODELHF=     F    short range full HF, long range fraction AEXX
   ENCUT4O =  -1.0   cutoff for four orbital integrals eV
   LMAXFOCK=     4    L truncation for augmentation on plane wave grid
   LMAXFOCKAE=  -1    L truncation for all-electron charge restoration on plane wave grid
   NMAXFOCKAE=   1    number of basis functions for all-electron charge restoration
   LFOCKAEDFT=     F  apply the AE augmentation even for DFT
   NKREDX  =     1    reduce k-point grid by
   NKREDY  =     1    reduce k-point grid by
   NKREDZ  =     1    reduce k-point grid by
   SHIFTRED=     F    shift reduced grid of Gamma
   HFKIDENT=     F    idential grid for each k-point
   ODDONLY =     F    use only odd q-grid points
   EVENONLY=     F    use only even q-grid points
   HFALPHA =   -1.0000 decay constant for conv. correction
   MCALPHA =    0.0000 extent of test-charge in conv. correction in multipole expansion
   AEXX    =    0.2500 exact exchange contribution
   HFSCREEN=    0.2000 screening length (either q_TF or 0.3 A-1)
   HFSCREENC=   0.2000 screening length for correlation (either q_TF or 0.3 A-1)
   HFRCUT  =    0.0000 spherical cutoff for potential kernel
   ALDAX   =    0.7500 LDA exchange part
   AGGAX   =    0.7500 GGA exchange part
   ALDAC   =    1.0000 LDA correlation
   AGGAC   =    1.0000 GGA correlation
   ENCUTFOCK=  -1.0 apply spherical cutoff to Coloumb kernel
   NBANDSGWLOW=     1    first orbital included in HF term
   NBLOCK_FOCK=    64    blocking factor in FOCK_ACC
 Linear response parameters
   LEPSILON=     F    determine dielectric tensor
   LRPA    =     F    only Hartree local field effects (RPA)
   LNABLA  =     F    use nabla operator in PAW spheres
   LVEL    =     F    velocity operator in full k-point grid
   LINTERFAST=   F  fast interpolation
   KINTER  =     0    interpolate to denser k-point grid
   CSHIFT  =0.1000    complex shift for real part using Kramers Kronig
   OMEGAMAX=  -1.0    maximum frequency
   DEG_THRESHOLD= 0.2000000E-02 threshold for treating states as degnerate
   RTIME   =   -0.100 relaxation time in fs
  (WPLASMAI=    0.000 imaginary part of plasma frequency in eV, 0.658/RTIME)
   DFIELD  = 0.0000000 0.0000000 0.0000000 field for delta impulse in time
 
 Orbital magnetization related:
   ORBITALMAG=     F  switch on orbital magnetization
   LCHIMAG   =     F  perturbation theory with respect to B field
   DQ        =  0.001000  dq finite difference perturbation B field
   LLRAUG    =     F  two centre corrections for induced B field



--------------------------------------------------------------------------------------------------------


 Static calculation
 charge density and potential will be updated during run
 spin polarized calculation
 Conjugate gradient for all bands (Freysoldt, et al. PRB 79, 241103 (2009))
 perform sub-space diagonalisation
    before iterative eigenvector-optimisation
 modified Broyden-mixing scheme, WC =      100.0
 initial mixing is a Kerker type mixing with AMIX =  0.4000 and BMIX =      1.0000
 Hartree-type preconditioning will be used
 using additional bands           34
 reciprocal scheme for non local part
 use partial core corrections
 no Harris-corrections to forces 
 use gradient corrections 
 use of overlap-Matrix (Vanderbilt PP)
 Gauss-broadening in eV      SIGMA  =   0.10


--------------------------------------------------------------------------------------------------------


  energy-cutoff  :      500.00
  volume of cell :     3176.89
      direct lattice vectors                 reciprocal lattice vectors
    13.063970020 -0.007783066 -0.000084232     0.076546401 -0.000014407 -0.000015795
     0.002320128 12.326346192  0.000475649     0.000048333  0.081127033 -0.000006294
     0.004071140  0.001528146 19.728419064     0.000000326 -0.000001956  0.050688299

  length of vectors
    13.063972339 12.326346419 19.728419543     0.076546404  0.081127047  0.050688299


 
 old parameters found on file WAVECAR:
  energy-cutoff  :      500.00
  volume of cell :     3176.89
      direct lattice vectors                 reciprocal lattice vectors
    12.974100000  0.000000000  0.000000000     0.077076637 -0.000061074 -0.000016141
     0.009697377 12.238296158  0.000000000     0.000000000  0.081710721 -0.000003124
     0.004190466  0.000764932 20.007999547     0.000000000  0.000000000  0.049980009

  length of vectors

 
 k-points in units of 2pi/SCALE and weight: KPOINTS created by Atomic Simulation Env
   0.01914868  0.02027816 -0.00000552       0.500
  -0.01912452  0.02028536  0.00000238       0.500
 
 k-points in reciprocal lattice and weights: KPOINTS created by Atomic Simulation Env
   0.25000000  0.25000000  0.00000000       0.500
  -0.25000000  0.25000000 -0.00000000       0.500
 
 position of ions in fractional coordinates (direct lattice) 
   0.22524823  0.00005157  0.49980370
   0.05672762  0.09956150  0.49995717
   0.11307084  0.00011783  0.49991531
   0.28024175  0.10185634  0.49962797
   0.22264435  0.20252632  0.49958461
   0.05194059  0.29826227  0.50004295
   0.11129981  0.20023353  0.49986194
   0.21070521  0.39866603  0.49962222
   0.04865471  0.49981707  0.50020372
   0.10298770  0.39913766  0.50002989
   0.26343770  0.49978601  0.49933683
   0.20988180  0.60110393  0.49976197
   0.05128512  0.70150829  0.50015236
   0.10231748  0.60048652  0.50013987
   0.22149309  0.79770672  0.49983142
   0.05621555  0.90071713  0.50002023
   0.11028050  0.80002188  0.50002262
   0.27996558  0.89835459  0.49980500
   0.55704787  0.00075580  0.49993193
   0.39224143  0.10378367  0.49959904
   0.44642445  0.00094075  0.49980057
   0.61347084  0.10036686  0.49989237
   0.55862010  0.20040573  0.49962412
   0.61544856  0.30225884  0.49960435
   0.61167107  0.49677981  0.49954925
   0.61563501  0.69832618  0.49980802
   0.55949452  0.80118042  0.49988593
   0.39223300  0.89767856  0.49979986
   0.61383147  0.90137481  0.50002586
   0.89024799  0.00019536  0.50010122
   0.72368516  0.09946645  0.50003590
   0.77966118  0.00028087  0.50011349
   0.94587304  0.09953484  0.50007371
   0.88865006  0.19865907  0.50010221
   0.72461406  0.29972461  0.49988178
   0.77902050  0.19904544  0.50003106
   0.94249916  0.29875996  0.50013545
   0.88763233  0.39902742  0.50014660
   0.72252103  0.49881154  0.49984094
   0.77851933  0.39955780  0.49996596
   0.94083876  0.49982189  0.50021242
   0.88680321  0.60040938  0.50014600
   0.72448488  0.70033801  0.49996158
   0.77759229  0.59963189  0.49998328
   0.94182549  0.70095760  0.50015751
   0.88851578  0.80136873  0.50010783
   0.72389627  0.90101152  0.50009431
   0.77904328  0.80101145  0.50007179
   0.94559059  0.90068453  0.50008688
   0.27325952  0.30532500  0.49931993
   0.27101862  0.69489104  0.49952719
   0.44962586  0.20393564  0.49943370
   0.55904366  0.59951607  0.49949476
   0.45046502  0.79896764  0.49974460
   0.56074834  0.39652196  0.49936486
   0.36453151  0.49907492  0.49860851
   0.41062750  0.35053582  0.49897015
   0.41507963  0.64407690  0.49900531
 
 position of ions in cartesian coordinates  (Angst):
   2.94467098 -0.00035362  9.86031785
   0.74335430  1.22755201  9.86340709
   1.47918951  0.00133627  9.86252928
   3.66334014  1.25409890  9.85689487
   2.91112293  2.49544010  9.85609221
   0.68127800  3.67684388  9.86519444
   1.45651693  2.46804538  9.86157164
   2.75560557  4.91321907  9.85692832
   0.63881968  6.16130397  9.86846229
   1.34838999  4.91987149  9.86498035
   3.44473462  6.15924814  9.85134177
   2.74531877  7.40854537  9.85978181
   0.67365107  8.64739919  9.86754461
   1.34010190  7.40177268  9.86724598
   2.89746476  9.83184915  9.86124453
   0.73852370 11.10287768  9.86503235
   1.44459293  9.86125243  9.86502700
   3.66158095 11.07201448  9.86076628
   7.27929368  0.00574474  9.86281999
   5.12650495  1.27698409  9.85631548
   5.83411261  0.00888523  9.86023790
   8.01663261  1.23314589  9.86208225
   7.30029518  2.46668616  9.85684220
   8.04293682  3.72172050  9.85649583
   7.99403888  6.11948259  9.85550178
   8.04629232  8.60378256  9.86070237
   7.31311360  9.87203651  9.86229316
   5.12823770 11.06280767  9.86065507
   8.02320288 11.10664463  9.86509670
  11.63220953 -0.00375656  9.86613160
   9.45646778  1.22118959  9.86490411
  10.18750697 -0.00184177  9.86638301
  12.35912384  1.22030332  9.86563136
  11.61179465  2.44258823  9.86624558
   9.46906682  3.68963343  9.86195871
  10.17959801  2.44820393  9.86485141
  12.31551010  3.67604744  9.86694448
  11.59896412  4.91240597  9.86721682
   9.44218535  6.14366417  9.86124800
  10.17351570  4.91979251  9.86366240
  12.29428540  6.15441938  9.86855875
  11.58859972  7.39471611  9.86730081
   9.46830902  8.62773412  9.86372366
  10.16186905  7.38598231  9.86409930
  12.30764252  8.63368001  9.86757110
  11.61143874  9.87179720  9.86664312
   9.46108554 11.10131004  9.86643769
  10.18129242  9.86824531  9.86594117
  12.35729268 11.09555394  9.86627222
   3.57259537  3.76217790  9.85091502
   3.54422503  8.56412157  9.85518950
   5.87640520  2.51104498  9.85309650
   7.30675413  7.38625482  9.85447996
   5.88874979  9.84560947  9.85951299
   7.32855243  4.88406570  9.85182051
   4.76541659  6.14969505  9.83696422
   5.36727001  4.31839244  9.84402438
   5.42611371  7.93664681  9.84485733
 


--------------------------------------------------------------------------------------------------------


 k-point  1 :   0.2500 0.2500 0.0000  plane waves:   80618
 k-point  2 :  -0.2500 0.2500-0.0000  plane waves:   80627

 maximum and minimum number of plane-waves per node :      2559     2476

 maximum number of plane-waves:     80627
 maximum index in each direction: 
   IXMAX=   24   IYMAX=   22   IZMAX=   35
   IXMIN=  -24   IYMIN=  -22   IZMIN=  -35


 parallel 3D FFT for wavefunctions:
    minimum data exchange during FFTs selected (reduces bandwidth)
 parallel 3D FFT for charge:
    minimum data exchange during FFTs selected (reduces bandwidth)


 FFT grid for exact exchange (Hartree Fock) 
  NGX = 72; NGY = 70; NGZ =108

 
 Radii for the augmentation spheres in the non-local exchange
 for species   1 augmentation radius   0.874 (default was   0.699)
       energy cutoff for augmentation   2000.0
 for species   2 augmentation radius   0.886 (default was   0.709)
       energy cutoff for augmentation   2000.0
 for species   3 augmentation radius   1.224 (default was   0.979)
       energy cutoff for augmentation   2000.0
 for species   4 augmentation radius   1.263 (default was   1.010)
       energy cutoff for augmentation   2000.0

 real space projection operators:
  total allocation   :       2401.33 KBytes
  max/ min on nodes  :        122.09         43.66

 Maximum index for augmentation-charges in exchange          141
  SETUP_FOCK is finished

 total amount of memory used by VASP MPI-rank0   160811. kBytes
=======================================================================

   base      :      30000. kBytes
   nonl-proj :       5339. kBytes
   fftplans  :      12934. kBytes
   grid      :      33177. kBytes
   one-center:         62. kBytes
   HF        :         23. kBytes
   nonlr-proj:       1612. kBytes
   wavefun   :      77664. kBytes
 
     INWAV:  cpu time    3.6499: real time    3.6508
 Broyden mixing: mesh for mixing (old mesh)
   NGX = 47   NGY = 45   NGZ = 71
  (NGX  =192   NGY  =180   NGZ  =288)
  gives a total of 150165 points

 charge density for first step will be calculated from the start-wavefunctions


--------------------------------------------------------------------------------------------------------


 Maximum index for augmentation-charges          224 (set IRDMAX)


--------------------------------------------------------------------------------------------------------


 initial charge from wavefunction
 First call to EWALD:  gamma=   0.121
 Maximum number of real-space cells 3x 3x 2
 Maximum number of reciprocal cells 2x 2x 4

    FEWALD:  cpu time    0.0038: real time    0.0038


--------------------------------------- Iteration      1(   1)  ---------------------------------------


    POTLOK:  cpu time    1.2421: real time    1.2449
    SETDIJ:  cpu time    2.0966: real time    2.1029
    TRIAL :  cpu time  517.6356: real time  517.7566
    CORREC:  cpu time    0.0023: real time    0.0026
    CHARGE:  cpu time    1.6094: real time    1.6095
    --------------------------------------------
      LOOP:  cpu time  522.6016: real time  522.7348

 eigenvalue-minimisations  :     0
 total energy-change (2. order) :-0.6010790E+03  (-0.4565209E+00)
 number of electron     244.0000032 magnetization       3.3863172
 augmentation part       15.5763159 magnetization       2.2640675

 DIPCOR: dipole corrections for dipol
 direction  3 min pos     1,
 dipolmoment          -0.000000     -0.000000     -0.000616 electrons x Angstroem
 Tr[quadrupol]     -6584.558021

 energy correction for charged system         0.000000 eV
 dipol+quadrupol energy correction            0.000000 eV
 added-field ion interaction          0.000000 eV  (added to PSCEN)


 Free energy of the ion-electron system (eV)
  ---------------------------------------------------
  alpha Z        PSCENC =        99.03744532
  Ewald energy   TEWEN  =     37906.16360348
  -Hartree energ DENC   =    -46604.23368252
  -exchange      EXHF   =       548.92124950
  -V(xc)+E(xc)   XCENC  =       624.66657461
  PAW double counting   =     26114.92050134   -26215.13492710
  entropy T*S    EENTRO =        -0.04019635
  eigenvalues    EBANDS =     -3112.30053998
  atomic energy  EATOM  =     10036.92208704
  ---------------------------------------------------
  free energy    TOTEN  =      -601.07902419 eV

  energy without entropy =     -601.03882784  energy(sigma->0) =     -601.05892602
  exchange ACFDT corr.  =        -0.05961648  see jH, gK, PRB 81, 115126


--------------------------------------------------------------------------------------------------------




--------------------------------------- Iteration      1(   2)  ---------------------------------------


    POTLOK:  cpu time    1.2484: real time    1.2484
    SETDIJ:  cpu time    2.0785: real time    2.0858
    TRIAL :  cpu time  516.7471: real time  516.8212
    CORREC:  cpu time    0.0024: real time    0.0026
    CHARGE:  cpu time    1.6008: real time    1.6009
    --------------------------------------------
      LOOP:  cpu time  521.6804: real time  521.7627

 eigenvalue-minimisations  :     0
 total energy-change (2. order) :-0.3451641E+00  (-0.3913972E+00)
 number of electron     244.0000032 magnetization       3.3837740
 augmentation part       15.5507589 magnetization       2.3111060

 DIPCOR: dipole corrections for dipol
 direction  3 min pos     1,
 dipolmoment          -0.000000     -0.000000     -0.000978 electrons x Angstroem
 Tr[quadrupol]     -6584.390618

 energy correction for charged system         0.000000 eV
 dipol+quadrupol energy correction            0.000000 eV
 added-field ion interaction          0.000000 eV  (added to PSCEN)


 Free energy of the ion-electron system (eV)
  ---------------------------------------------------
  alpha Z        PSCENC =        99.03744534
  Ewald energy   TEWEN  =     37906.16360348
  -Hartree energ DENC   =    -46594.63502927
  -exchange      EXHF   =       548.86398717
  -V(xc)+E(xc)   XCENC  =       624.42532788
  PAW double counting   =     26237.31379010   -26338.17626391
  entropy T*S    EENTRO =        -0.03925820
  eigenvalues    EBANDS =     -3121.29893980
  atomic energy  EATOM  =     10036.92208704
  ---------------------------------------------------
  free energy    TOTEN  =      -601.42418834 eV

  energy without entropy =     -601.38493014  energy(sigma->0) =     -601.40455924
  exchange ACFDT corr.  =        -0.05696622  see jH, gK, PRB 81, 115126


--------------------------------------------------------------------------------------------------------




--------------------------------------- Iteration      1(   3)  ---------------------------------------


    POTLOK:  cpu time    1.2594: real time    1.2596
    SETDIJ:  cpu time    2.0812: real time    2.0813
    TRIAL :  cpu time  518.0483: real time  518.1273
    CORREC:  cpu time    0.0023: real time    0.0025
    CHARGE:  cpu time    1.5991: real time    1.5992
    --------------------------------------------
      LOOP:  cpu time  522.9929: real time  523.0725

 eigenvalue-minimisations  :     0
 total energy-change (2. order) :-0.3011217E+00  (-0.2147358E+00)
 number of electron     244.0000031 magnetization       3.3934113
 augmentation part       15.5262752 magnetization       2.3557904

 DIPCOR: dipole corrections for dipol
 direction  3 min pos     1,
 dipolmoment          -0.000000     -0.000000     -0.001113 electrons x Angstroem
 Tr[quadrupol]     -6584.197330

 energy correction for charged system         0.000000 eV
 dipol+quadrupol energy correction            0.000000 eV
 added-field ion interaction          0.000000 eV  (added to PSCEN)


 Free energy of the ion-electron system (eV)
  ---------------------------------------------------
  alpha Z        PSCENC =        99.03744535
  Ewald energy   TEWEN  =     37906.16360348
  -Hartree energ DENC   =    -46577.38900503
  -exchange      EXHF   =       548.72358535
  -V(xc)+E(xc)   XCENC  =       623.99349269
  PAW double counting   =     26386.85494257   -26486.87328190
  entropy T*S    EENTRO =        -0.03863615
  eigenvalues    EBANDS =     -3139.11892135
  atomic energy  EATOM  =     10036.92208704
  ---------------------------------------------------
  free energy    TOTEN  =      -601.72530999 eV

  energy without entropy =     -601.68667384  energy(sigma->0) =     -601.70599192
  exchange ACFDT corr.  =        -0.05088275  see jH, gK, PRB 81, 115126


--------------------------------------------------------------------------------------------------------




--------------------------------------- Iteration      1(   4)  ---------------------------------------


    POTLOK:  cpu time    1.2628: real time    1.2629
    SETDIJ:  cpu time    2.0828: real time    2.0831
    TRIAL :  cpu time  518.2483: real time  518.3282
    CORREC:  cpu time    0.0023: real time    0.0026
    CHARGE:  cpu time    1.5940: real time    1.5942
    --------------------------------------------
      LOOP:  cpu time  523.1929: real time  523.2735

 eigenvalue-minimisations  :     0
 total energy-change (2. order) :-0.1626950E+00  (-0.1303430E+00)
 number of electron     244.0000031 magnetization       3.4052232
 augmentation part       15.5299775 magnetization       2.3882565

 DIPCOR: dipole corrections for dipol
 direction  3 min pos     1,
 dipolmoment          -0.000000     -0.000000     -0.000879 electrons x Angstroem
 Tr[quadrupol]     -6584.110329

 energy correction for charged system         0.000000 eV
 dipol+quadrupol energy correction            0.000000 eV
 added-field ion interaction          0.000000 eV  (added to PSCEN)


 Free energy of the ion-electron system (eV)
  ---------------------------------------------------
  alpha Z        PSCENC =        99.03744533
  Ewald energy   TEWEN  =     37906.16360348
  -Hartree energ DENC   =    -46567.93155701
  -exchange      EXHF   =       548.78900948
  -V(xc)+E(xc)   XCENC  =       623.78269433
  PAW double counting   =     26518.87234595   -26618.19660466
  entropy T*S    EENTRO =        -0.03828245
  eigenvalues    EBANDS =     -3149.28839274
  atomic energy  EATOM  =     10036.92208704
  ---------------------------------------------------
  free energy    TOTEN  =      -601.88800494 eV

  energy without entropy =     -601.84972249  energy(sigma->0) =     -601.86886372
  exchange ACFDT corr.  =        -0.04683669  see jH, gK, PRB 81, 115126


--------------------------------------------------------------------------------------------------------




--------------------------------------- Iteration      1(   5)  ---------------------------------------


    POTLOK:  cpu time    1.2594: real time    1.2595
    SETDIJ:  cpu time    2.0811: real time    2.0812
    TRIAL :  cpu time  517.5469: real time  517.6392
    CORREC:  cpu time    0.0023: real time    0.0025
    CHARGE:  cpu time    1.5933: real time    1.5933
    --------------------------------------------
      LOOP:  cpu time  522.4853: real time  522.5783

 eigenvalue-minimisations  :     0
 total energy-change (2. order) :-0.1039097E+00  (-0.8271072E-01)
 number of electron     244.0000031 magnetization       3.4032057
 augmentation part       15.5416531 magnetization       2.4064776

 DIPCOR: dipole corrections for dipol
 direction  3 min pos     1,
 dipolmoment          -0.000000     -0.000000     -0.000636 electrons x Angstroem
 Tr[quadrupol]     -6584.137320

 energy correction for charged system         0.000000 eV
 dipol+quadrupol energy correction            0.000000 eV
 added-field ion interaction          0.000000 eV  (added to PSCEN)


 Free energy of the ion-electron system (eV)
  ---------------------------------------------------
  alpha Z        PSCENC =        99.03744532
  Ewald energy   TEWEN  =     37906.16360348
  -Hartree energ DENC   =    -46569.46655512
  -exchange      EXHF   =       549.06551503
  -V(xc)+E(xc)   XCENC  =       623.85417409
  PAW double counting   =     26620.74467915   -26720.25879172
  entropy T*S    EENTRO =        -0.03817639
  eigenvalues    EBANDS =     -3148.01578949
  atomic energy  EATOM  =     10036.92208704
  ---------------------------------------------------
  free energy    TOTEN  =      -601.99191467 eV

  energy without entropy =     -601.95373828  energy(sigma->0) =     -601.97282647
  exchange ACFDT corr.  =        -0.04400029  see jH, gK, PRB 81, 115126


--------------------------------------------------------------------------------------------------------




--------------------------------------- Iteration      1(   6)  ---------------------------------------


    POTLOK:  cpu time    1.2621: real time    1.2622
    SETDIJ:  cpu time    2.0826: real time    2.0828
    TRIAL :  cpu time  517.2143: real time  517.2972
    CORREC:  cpu time    0.0022: real time    0.0022
    CHARGE:  cpu time    1.5935: real time    1.5936
    --------------------------------------------
      LOOP:  cpu time  522.1572: real time  522.2407

 eigenvalue-minimisations  :     0
 total energy-change (2. order) :-0.6971707E-01  (-0.5898812E-01)
 number of electron     244.0000031 magnetization       3.3934093
 augmentation part       15.5471097 magnetization       2.4167981

 DIPCOR: dipole corrections for dipol
 direction  3 min pos     1,
 dipolmoment          -0.000000     -0.000000     -0.000534 electrons x Angstroem
 Tr[quadrupol]     -6584.202766

 energy correction for charged system         0.000000 eV
 dipol+quadrupol energy correction            0.000000 eV
 added-field ion interaction          0.000000 eV  (added to PSCEN)


 Free energy of the ion-electron system (eV)
  ---------------------------------------------------
  alpha Z        PSCENC =        99.03744532
  Ewald energy   TEWEN  =     37906.16360348
  -Hartree energ DENC   =    -46574.18942875
  -exchange      EXHF   =       549.36579804
  -V(xc)+E(xc)   XCENC  =       624.00047098
  PAW double counting   =     26689.89980647   -26789.67701759
  entropy T*S    EENTRO =        -0.03818696
  eigenvalues    EBANDS =     -3143.54622033
  atomic energy  EATOM  =     10036.92208704
  ---------------------------------------------------
  free energy    TOTEN  =      -602.06163174 eV

  energy without entropy =     -602.02344478  energy(sigma->0) =     -602.04253826
  exchange ACFDT corr.  =        -0.04169428  see jH, gK, PRB 81, 115126


--------------------------------------------------------------------------------------------------------




--------------------------------------- Iteration      1(   7)  ---------------------------------------


    POTLOK:  cpu time    1.2561: real time    1.2564
    SETDIJ:  cpu time    2.0798: real time    2.0799
    TRIAL :  cpu time  518.2675: real time  518.3509
    CORREC:  cpu time    0.0022: real time    0.0025
    CHARGE:  cpu time    1.5924: real time    1.5925
    --------------------------------------------
      LOOP:  cpu time  523.2022: real time  523.2882

 eigenvalue-minimisations  :     0
 total energy-change (2. order) :-0.5083181E-01  (-0.4142701E-01)
 number of electron     244.0000031 magnetization       3.3802801
 augmentation part       15.5497446 magnetization       2.4229867

 DIPCOR: dipole corrections for dipol
 direction  3 min pos     1,
 dipolmoment          -0.000000     -0.000000     -0.000507 electrons x Angstroem
 Tr[quadrupol]     -6584.255215

 energy correction for charged system         0.000000 eV
 dipol+quadrupol energy correction            0.000000 eV
 added-field ion interaction          0.000000 eV  (added to PSCEN)


 Free energy of the ion-electron system (eV)
  ---------------------------------------------------
  alpha Z        PSCENC =        99.03744532
  Ewald energy   TEWEN  =     37906.16360348
  -Hartree energ DENC   =    -46577.54058220
  -exchange      EXHF   =       549.59635756
  -V(xc)+E(xc)   XCENC  =       624.11062530
  PAW double counting   =     26731.89263863   -26831.67599295
  entropy T*S    EENTRO =        -0.03821556
  eigenvalues    EBANDS =     -3140.58045877
  atomic energy  EATOM  =     10036.92208704
  ---------------------------------------------------
  free energy    TOTEN  =      -602.11246355 eV

  energy without entropy =     -602.07424799  energy(sigma->0) =     -602.09335577
  exchange ACFDT corr.  =        -0.03977535  see jH, gK, PRB 81, 115126


--------------------------------------------------------------------------------------------------------




--------------------------------------- Iteration      1(   8)  ---------------------------------------


    POTLOK:  cpu time    1.2537: real time    1.2538
    SETDIJ:  cpu time    2.0796: real time    2.0799
    TRIAL :  cpu time  517.9899: real time  518.0735
    CORREC:  cpu time    0.0022: real time    0.0025
    CHARGE:  cpu time    1.5915: real time    1.5918
    --------------------------------------------
      LOOP:  cpu time  522.9194: real time  523.0062

 eigenvalue-minimisations  :     0
 total energy-change (2. order) :-0.3650046E-01  (-0.3088719E-01)
 number of electron     244.0000031 magnetization       3.3617462
 augmentation part       15.5536987 magnetization       2.4257751

 DIPCOR: dipole corrections for dipol
 direction  3 min pos     1,
 dipolmoment          -0.000000     -0.000000     -0.000518 electrons x Angstroem
 Tr[quadrupol]     -6584.283818

 energy correction for charged system         0.000000 eV
 dipol+quadrupol energy correction            0.000000 eV
 added-field ion interaction          0.000000 eV  (added to PSCEN)


 Free energy of the ion-electron system (eV)
  ---------------------------------------------------
  alpha Z        PSCENC =        99.03744532
  Ewald energy   TEWEN  =     37906.16360348
  -Hartree energ DENC   =    -46579.45703550
  -exchange      EXHF   =       549.75928544
  -V(xc)+E(xc)   XCENC  =       624.18317837
  PAW double counting   =     26755.63485714   -26855.39564610
  entropy T*S    EENTRO =        -0.03823903
  eigenvalues    EBANDS =     -3138.95852362
  atomic energy  EATOM  =     10036.92208704
  ---------------------------------------------------
  free energy    TOTEN  =      -602.14896401 eV

  energy without entropy =     -602.11072498  energy(sigma->0) =     -602.12984450
  exchange ACFDT corr.  =        -0.03825164  see jH, gK, PRB 81, 115126


--------------------------------------------------------------------------------------------------------




--------------------------------------- Iteration      1(   9)  ---------------------------------------


    POTLOK:  cpu time    1.2461: real time    1.2462
    SETDIJ:  cpu time    2.0820: real time    2.0821
    TRIAL :  cpu time  517.6529: real time  517.7334
    CORREC:  cpu time    0.0023: real time    0.0025
    CHARGE:  cpu time    1.5917: real time    1.5918
    --------------------------------------------
      LOOP:  cpu time  522.5774: real time  522.6584

 eigenvalue-minimisations  :     0
 total energy-change (2. order) :-0.2774465E-01  (-0.2353868E-01)
 number of electron     244.0000031 magnetization       3.3385974
 augmentation part       15.5575825 magnetization       2.4265773

 DIPCOR: dipole corrections for dipol
 direction  3 min pos     1,
 dipolmoment          -0.000000     -0.000000     -0.000568 electrons x Angstroem
 Tr[quadrupol]     -6584.295038

 energy correction for charged system         0.000000 eV
 dipol+quadrupol energy correction            0.000000 eV
 added-field ion interaction          0.000000 eV  (added to PSCEN)


 Free energy of the ion-electron system (eV)
  ---------------------------------------------------
  alpha Z        PSCENC =        99.03744532
  Ewald energy   TEWEN  =     37906.16360348
  -Hartree energ DENC   =    -46580.60989816
  -exchange      EXHF   =       549.87357679
  -V(xc)+E(xc)   XCENC  =       624.23098939
  PAW double counting   =     26768.61108293   -26868.44504022
  entropy T*S    EENTRO =        -0.03821968
  eigenvalues    EBANDS =     -3137.92231620
  atomic energy  EATOM  =     10036.92208704
  ---------------------------------------------------
  free energy    TOTEN  =      -602.17670866 eV

  energy without entropy =     -602.13848898  energy(sigma->0) =     -602.15759882
  exchange ACFDT corr.  =        -0.03696256  see jH, gK, PRB 81, 115126


--------------------------------------------------------------------------------------------------------




--------------------------------------- Iteration      1(  10)  ---------------------------------------


    POTLOK:  cpu time    1.2411: real time    1.2414
    SETDIJ:  cpu time    2.0853: real time    2.0854
    TRIAL :  cpu time  519.3156: real time  519.3946
    CORREC:  cpu time    0.0021: real time    0.0023
    CHARGE:  cpu time    1.5978: real time    1.5979
    --------------------------------------------
      LOOP:  cpu time  524.2441: real time  524.3239

 eigenvalue-minimisations  :     0
 total energy-change (2. order) :-0.2138309E-01  (-0.1844942E-01)
 number of electron     244.0000031 magnetization       3.3141396
 augmentation part       15.5596099 magnetization       2.4267293

 DIPCOR: dipole corrections for dipol
 direction  3 min pos     1,
 dipolmoment          -0.000000     -0.000000     -0.000621 electrons x Angstroem
 Tr[quadrupol]     -6584.296632

 energy correction for charged system         0.000000 eV
 dipol+quadrupol energy correction            0.000000 eV
 added-field ion interaction          0.000000 eV  (added to PSCEN)


 Free energy of the ion-electron system (eV)
  ---------------------------------------------------
  alpha Z        PSCENC =        99.03744532
  Ewald energy   TEWEN  =     37906.16360348
  -Hartree energ DENC   =    -46581.09666971
  -exchange      EXHF   =       549.95160920
  -V(xc)+E(xc)   XCENC  =       624.25620114
  PAW double counting   =     26775.42456473   -26875.34308687
  entropy T*S    EENTRO =        -0.03812542
  eigenvalues    EBANDS =     -3137.47562639
  atomic energy  EATOM  =     10036.92208704
  ---------------------------------------------------
  free energy    TOTEN  =      -602.19809175 eV

  energy without entropy =     -602.15996634  energy(sigma->0) =     -602.17902904
  exchange ACFDT corr.  =        -0.03579045  see jH, gK, PRB 81, 115126


--------------------------------------------------------------------------------------------------------




--------------------------------------- Iteration      1(  11)  ---------------------------------------


    POTLOK:  cpu time    1.2375: real time    1.2376
    SETDIJ:  cpu time    2.0845: real time    2.0847
    TRIAL :  cpu time  518.7605: real time  518.8456
    CORREC:  cpu time    0.0023: real time    0.0025
    CHARGE:  cpu time    1.5915: real time    1.5916
    --------------------------------------------
      LOOP:  cpu time  523.6784: real time  523.7642

 eigenvalue-minimisations  :     0
 total energy-change (2. order) :-0.1698409E-01  (-0.1482683E-01)
 number of electron     244.0000031 magnetization       3.2899003
 augmentation part       15.5604971 magnetization       2.4263290

 DIPCOR: dipole corrections for dipol
 direction  3 min pos     1,
 dipolmoment          -0.000000     -0.000000     -0.000645 electrons x Angstroem
 Tr[quadrupol]     -6584.294975

 energy correction for charged system         0.000000 eV
 dipol+quadrupol energy correction            0.000000 eV
 added-field ion interaction          0.000000 eV  (added to PSCEN)


 Free energy of the ion-electron system (eV)
  ---------------------------------------------------
  alpha Z        PSCENC =        99.03744532
  Ewald energy   TEWEN  =     37906.16360348
  -Hartree energ DENC   =    -46581.08775861
  -exchange      EXHF   =       550.00660900
  -V(xc)+E(xc)   XCENC  =       624.26521801
  PAW double counting   =     26778.83466391   -26878.78126987
  entropy T*S    EENTRO =        -0.03794708
  eigenvalues    EBANDS =     -3137.53754870
  atomic energy  EATOM  =     10036.92208704
  ---------------------------------------------------
  free energy    TOTEN  =      -602.21507584 eV

  energy without entropy =     -602.17712875  energy(sigma->0) =     -602.19610230
  exchange ACFDT corr.  =        -0.03472692  see jH, gK, PRB 81, 115126


--------------------------------------------------------------------------------------------------------




--------------------------------------- Iteration      1(  12)  ---------------------------------------


    POTLOK:  cpu time    1.2394: real time    1.2395
    SETDIJ:  cpu time    2.0906: real time    2.0908
    TRIAL :  cpu time  518.9744: real time  519.0513
    CORREC:  cpu time    0.0022: real time    0.0022
    CHARGE:  cpu time    1.5911: real time    1.5913
    --------------------------------------------
      LOOP:  cpu time  523.9003: real time  523.9798

 eigenvalue-minimisations  :     0
 total energy-change (2. order) :-0.1373769E-01  (-0.1206188E-01)
 number of electron     244.0000031 magnetization       3.2656198
 augmentation part       15.5617036 magnetization       2.4250328

 DIPCOR: dipole corrections for dipol
 direction  3 min pos     1,
 dipolmoment          -0.000000     -0.000000     -0.000644 electrons x Angstroem
 Tr[quadrupol]     -6584.294306

 energy correction for charged system         0.000000 eV
 dipol+quadrupol energy correction            0.000000 eV
 added-field ion interaction          0.000000 eV  (added to PSCEN)


 Free energy of the ion-electron system (eV)
  ---------------------------------------------------
  alpha Z        PSCENC =        99.03744532
  Ewald energy   TEWEN  =     37906.16360348
  -Hartree energ DENC   =    -46581.00430453
  -exchange      EXHF   =       550.05207537
  -V(xc)+E(xc)   XCENC  =       624.26981925
  PAW double counting   =     26780.75400005   -26880.70069260
  entropy T*S    EENTRO =        -0.03767730
  eigenvalues    EBANDS =     -3137.68489982
  atomic energy  EATOM  =     10036.92208704
  ---------------------------------------------------
  free energy    TOTEN  =      -602.22881353 eV

  energy without entropy =     -602.19113622  energy(sigma->0) =     -602.20997487
  exchange ACFDT corr.  =        -0.03375479  see jH, gK, PRB 81, 115126


--------------------------------------------------------------------------------------------------------




--------------------------------------- Iteration      1(  13)  ---------------------------------------


    POTLOK:  cpu time    1.2382: real time    1.2384
    SETDIJ:  cpu time    2.0796: real time    2.0797
    TRIAL :  cpu time  517.6654: real time  517.7383
    CORREC:  cpu time    0.0022: real time    0.0025
    CHARGE:  cpu time    1.5916: real time    1.5917
    --------------------------------------------
      LOOP:  cpu time  522.5795: real time  522.6530

 eigenvalue-minimisations  :     0
 total energy-change (2. order) :-0.1126278E-01  (-0.9968679E-02)
 number of electron     244.0000031 magnetization       3.2415421
 augmentation part       15.5631579 magnetization       2.4228956

 DIPCOR: dipole corrections for dipol
 direction  3 min pos     1,
 dipolmoment          -0.000000     -0.000000     -0.000642 electrons x Angstroem
 Tr[quadrupol]     -6584.296055

 energy correction for charged system         0.000000 eV
 dipol+quadrupol energy correction            0.000000 eV
 added-field ion interaction          0.000000 eV  (added to PSCEN)


 Free energy of the ion-electron system (eV)
  ---------------------------------------------------
  alpha Z        PSCENC =        99.03744532
  Ewald energy   TEWEN  =     37906.16360348
  -Hartree energ DENC   =    -46581.14061112
  -exchange      EXHF   =       550.09570374
  -V(xc)+E(xc)   XCENC  =       624.27761653
  PAW double counting   =     26782.40646634   -26882.37221401
  entropy T*S    EENTRO =        -0.03731470
  eigenvalues    EBANDS =     -3137.59249631
  atomic energy  EATOM  =     10036.92208704
  ---------------------------------------------------
  free energy    TOTEN  =      -602.24007630 eV

  energy without entropy =     -602.20276160  energy(sigma->0) =     -602.22141895
  exchange ACFDT corr.  =        -0.03280712  see jH, gK, PRB 81, 115126


--------------------------------------------------------------------------------------------------------




--------------------------------------- Iteration      1(  14)  ---------------------------------------


    POTLOK:  cpu time    1.2318: real time    1.2318
    SETDIJ:  cpu time    2.0771: real time    2.0773
    TRIAL :  cpu time  517.6837: real time  517.7392
    CORREC:  cpu time    0.0023: real time    0.0025
    CHARGE:  cpu time    1.5906: real time    1.5909
    --------------------------------------------
      LOOP:  cpu time  522.5883: real time  522.6445

 eigenvalue-minimisations  :     0
 total energy-change (2. order) :-0.9338003E-02  (-0.8282936E-02)
 number of electron     244.0000031 magnetization       3.2184919
 augmentation part       15.5643120 magnetization       2.4202847

 DIPCOR: dipole corrections for dipol
 direction  3 min pos     1,
 dipolmoment          -0.000000     -0.000000     -0.000646 electrons x Angstroem
 Tr[quadrupol]     -6584.298990

 energy correction for charged system         0.000000 eV
 dipol+quadrupol energy correction            0.000000 eV
 added-field ion interaction          0.000000 eV  (added to PSCEN)


 Free energy of the ion-electron system (eV)
  ---------------------------------------------------
  alpha Z        PSCENC =        99.03744532
  Ewald energy   TEWEN  =     37906.16360348
  -Hartree energ DENC   =    -46581.41028606
  -exchange      EXHF   =       550.13697612
  -V(xc)+E(xc)   XCENC  =       624.28706805
  PAW double counting   =     26784.14251200   -26884.13926044
  entropy T*S    EENTRO =        -0.03687333
  eigenvalues    EBANDS =     -3137.35224511
  atomic energy  EATOM  =     10036.92208704
  ---------------------------------------------------
  free energy    TOTEN  =      -602.24941431 eV

  energy without entropy =     -602.21254098  energy(sigma->0) =     -602.23097764
  exchange ACFDT corr.  =        -0.03184701  see jH, gK, PRB 81, 115126


--------------------------------------------------------------------------------------------------------




--------------------------------------- Iteration      1(  15)  ---------------------------------------


    POTLOK:  cpu time    1.2302: real time    1.2303
    SETDIJ:  cpu time    2.0761: real time    2.0762
    TRIAL :  cpu time  518.7277: real time  518.7758
    CORREC:  cpu time    0.0023: real time    0.0025
    CHARGE:  cpu time    1.5924: real time    1.5925
    --------------------------------------------
      LOOP:  cpu time  523.6312: real time  523.6796

 eigenvalue-minimisations  :     0
 total energy-change (2. order) :-0.7776188E-02  (-0.6917319E-02)
 number of electron     244.0000031 magnetization       3.1969484
 augmentation part       15.5650622 magnetization       2.4174422

 DIPCOR: dipole corrections for dipol
 direction  3 min pos     1,
 dipolmoment          -0.000000     -0.000000     -0.000650 electrons x Angstroem
 Tr[quadrupol]     -6584.301683

 energy correction for charged system         0.000000 eV
 dipol+quadrupol energy correction            0.000000 eV
 added-field ion interaction          0.000000 eV  (added to PSCEN)


 Free energy of the ion-electron system (eV)
  ---------------------------------------------------
  alpha Z        PSCENC =        99.03744532
  Ewald energy   TEWEN  =     37906.16360348
  -Hartree energ DENC   =    -46581.64397719
  -exchange      EXHF   =       550.17361881
  -V(xc)+E(xc)   XCENC  =       624.29479210
  PAW double counting   =     26785.98096838   -26885.99927914
  entropy T*S    EENTRO =        -0.03637245
  eigenvalues    EBANDS =     -3137.14957597
  atomic energy  EATOM  =     10036.92208704
  ---------------------------------------------------
  free energy    TOTEN  =      -602.25719049 eV

  energy without entropy =     -602.22081804  energy(sigma->0) =     -602.23900427
  exchange ACFDT corr.  =        -0.03088242  see jH, gK, PRB 81, 115126


--------------------------------------------------------------------------------------------------------




--------------------------------------- Iteration      1(  16)  ---------------------------------------


    POTLOK:  cpu time    1.2263: real time    1.2265
    SETDIJ:  cpu time    2.0756: real time    2.0756
    TRIAL :  cpu time  518.7036: real time  518.7492
    CORREC:  cpu time    0.0022: real time    0.0024
    CHARGE:  cpu time    1.5967: real time    1.5967
    --------------------------------------------
      LOOP:  cpu time  523.6069: real time  523.6530

 eigenvalue-minimisations  :     0
 total energy-change (2. order) :-0.6499659E-02  (-0.5776544E-02)
 number of electron     244.0000031 magnetization       3.1769146
 augmentation part       15.5656810 magnetization       2.4144266

 DIPCOR: dipole corrections for dipol
 direction  3 min pos     1,
 dipolmoment          -0.000000     -0.000000     -0.000652 electrons x Angstroem
 Tr[quadrupol]     -6584.303673

 energy correction for charged system         0.000000 eV
 dipol+quadrupol energy correction            0.000000 eV
 added-field ion interaction          0.000000 eV  (added to PSCEN)


 Free energy of the ion-electron system (eV)
  ---------------------------------------------------
  alpha Z        PSCENC =        99.03744532
  Ewald energy   TEWEN  =     37906.16360348
  -Hartree energ DENC   =    -46581.79679686
  -exchange      EXHF   =       550.20535465
  -V(xc)+E(xc)   XCENC  =       624.30012635
  PAW double counting   =     26787.85919107   -26887.88618403
  entropy T*S    EENTRO =        -0.03582690
  eigenvalues    EBANDS =     -3137.03214472
  atomic energy  EATOM  =     10036.92208704
  ---------------------------------------------------
  free energy    TOTEN  =      -602.26369015 eV

  energy without entropy =     -602.22786326  energy(sigma->0) =     -602.24577670
  exchange ACFDT corr.  =        -0.02991965  see jH, gK, PRB 81, 115126


--------------------------------------------------------------------------------------------------------




--------------------------------------- Iteration      1(  17)  ---------------------------------------


    POTLOK:  cpu time    1.2281: real time    1.2281
    SETDIJ:  cpu time    2.0719: real time    2.0720
    TRIAL :  cpu time  518.4931: real time  518.5401
    CORREC:  cpu time    0.0023: real time    0.0026
    CHARGE:  cpu time    1.5900: real time    1.5900
    --------------------------------------------
      LOOP:  cpu time  523.3876: real time  523.4349

 eigenvalue-minimisations  :     0
 total energy-change (2. order) :-0.5429481E-02  (-0.4818823E-02)
 number of electron     244.0000031 magnetization       3.1584137
 augmentation part       15.5663124 magnetization       2.4113068

 DIPCOR: dipole corrections for dipol
 direction  3 min pos     1,
 dipolmoment          -0.000000     -0.000000     -0.000655 electrons x Angstroem
 Tr[quadrupol]     -6584.305174

 energy correction for charged system         0.000000 eV
 dipol+quadrupol energy correction            0.000000 eV
 added-field ion interaction          0.000000 eV  (added to PSCEN)


 Free energy of the ion-electron system (eV)
  ---------------------------------------------------
  alpha Z        PSCENC =        99.03744532
  Ewald energy   TEWEN  =     37906.16360348
  -Hartree energ DENC   =    -46581.92140480
  -exchange      EXHF   =       550.23345744
  -V(xc)+E(xc)   XCENC  =       624.30443847
  PAW double counting   =     26789.69070234   -26889.72422297
  entropy T*S    EENTRO =        -0.03525280
  eigenvalues    EBANDS =     -3136.93939906
  atomic energy  EATOM  =     10036.92208704
  ---------------------------------------------------
  free energy    TOTEN  =      -602.26911963 eV

  energy without entropy =     -602.23386684  energy(sigma->0) =     -602.25149323
  exchange ACFDT corr.  =        -0.02894954  see jH, gK, PRB 81, 115126


--------------------------------------------------------------------------------------------------------




--------------------------------------- Iteration      1(  18)  ---------------------------------------


    POTLOK:  cpu time    1.2277: real time    1.2278
    SETDIJ:  cpu time    2.0816: real time    2.0818
    TRIAL :  cpu time  518.7688: real time  518.8285
    CORREC:  cpu time    0.0022: real time    0.0024
    CHARGE:  cpu time    1.6005: real time    1.6007
    --------------------------------------------
      LOOP:  cpu time  523.6831: real time  523.7457

 eigenvalue-minimisations  :     0
 total energy-change (2. order) :-0.4530366E-02  (-0.4012037E-02)
 number of electron     244.0000031 magnetization       3.1416292
 augmentation part       15.5668628 magnetization       2.4082030

 DIPCOR: dipole corrections for dipol
 direction  3 min pos     1,
 dipolmoment          -0.000000     -0.000000     -0.000660 electrons x Angstroem
 Tr[quadrupol]     -6584.306411

 energy correction for charged system         0.000000 eV
 dipol+quadrupol energy correction            0.000000 eV
 added-field ion interaction          0.000000 eV  (added to PSCEN)


 Free energy of the ion-electron system (eV)
  ---------------------------------------------------
  alpha Z        PSCENC =        99.03744532
  Ewald energy   TEWEN  =     37906.16360348
  -Hartree energ DENC   =    -46582.05062520
  -exchange      EXHF   =       550.25881532
  -V(xc)+E(xc)   XCENC  =       624.30858378
  PAW double counting   =     26791.39818213   -26891.44161261
  entropy T*S    EENTRO =        -0.03467187
[...]
  augment   181.38874   175.45625   198.53727     1.84212     0.08970     0.02087
  Kinetic  3558.62385  3536.74179  3979.43845     2.33725     0.03142     0.12349
  Fock     -346.24054  -341.45381  -328.94177    -1.56111    -0.01603     0.00232
  -------------------------------------------------------------------------------------
  Total     -42.96651   -43.55532    -0.30582     0.19845     0.00935     0.02639
  in kB     -21.66900   -21.96595    -0.15423     0.10008     0.00471     0.01331
  external pressure =      -14.60 kB  Pullay stress =        0.00 kB


 VOLUME and BASIS-vectors are now :
 -----------------------------------------------------------------------------
  energy-cutoff  :      500.00
  volume of cell :     3176.89
      direct lattice vectors                 reciprocal lattice vectors
    13.063970020 -0.007783066 -0.000084232     0.076546401 -0.000014407 -0.000015795
     0.002320128 12.326346192  0.000475649     0.000048333  0.081127033 -0.000006294
     0.004071140  0.001528146 19.728419064     0.000000326 -0.000001956  0.050688299

  length of vectors
    13.063972339 12.326346419 19.728419543     0.076546404  0.081127047  0.050688299


 FORCES acting on ions:
    Electron-Ion                     Ewald-Force                    Non-Local-Force
 -----------------------------------------------------------------------------------------------
   -.427E+00 0.418E+01 -.141E+00   0.862E+00 -.427E+01 0.146E+00   -.340E+00 0.568E-01 -.535E-02
   0.178E+00 0.567E+01 -.371E+00   0.949E-01 -.563E+01 0.370E+00   -.268E+00 -.104E+00 0.432E-03
   -.126E+02 0.290E+01 -.188E+00   0.128E+02 -.287E+01 0.183E+00   -.257E+00 -.101E-01 0.535E-02
   -.255E+01 0.946E+01 0.566E+00   0.320E+01 -.876E+01 -.576E+00   -.591E+00 -.688E+00 0.106E-01
   0.162E+01 0.223E+02 0.701E+00   -.892E+00 -.210E+02 -.701E+00   -.911E+00 -.107E+01 0.267E-02
   0.513E+01 0.141E+02 -.105E+01   -.478E+01 -.144E+02 0.105E+01   -.247E+00 0.226E+00 0.715E-03
   -.479E+01 0.100E+02 -.187E+00   0.560E+01 -.990E+01 0.186E+00   -.776E+00 -.682E-01 0.141E-02
   0.277E+02 0.877E+01 -.232E+00   -.267E+02 -.105E+02 0.223E+00   -.118E+01 0.103E+01 0.868E-02
   0.167E+01 -.142E+01 -.200E+01   -.165E+01 0.146E+01 0.201E+01   -.145E+00 0.170E-01 -.459E-02
   0.131E+02 -.223E+00 -.151E+01   -.125E+02 -.678E-01 0.151E+01   -.454E+00 0.176E+00 -.371E-02
   0.573E+02 -.170E+02 0.685E+00   -.582E+02 0.171E+02 -.703E+00   0.212E+01 0.103E+00 0.179E-02
   0.108E+02 -.186E+02 -.851E+00   -.972E+01 0.201E+02 0.835E+00   -.952E+00 -.986E+00 0.108E-01
   0.147E+01 -.148E+02 -.141E+01   -.126E+01 0.149E+02 0.141E+01   -.129E+00 -.191E+00 -.771E-04
   0.903E+01 -.569E+01 -.202E+01   -.863E+01 0.593E+01 0.202E+01   -.401E+00 -.101E+00 -.737E-02
   -.126E+02 -.151E+02 -.414E+00   0.133E+02 0.139E+02 0.420E+00   -.833E+00 0.103E+01 -.915E-02
   -.197E+01 -.330E+01 -.549E+00   0.216E+01 0.330E+01 0.549E+00   -.183E+00 0.574E-01 -.315E-03
   -.926E+01 -.666E+01 -.813E+00   0.100E+02 0.660E+01 0.813E+00   -.700E+00 0.132E-01 -.602E-03
   -.887E+01 0.632E+01 -.192E+00   0.938E+01 -.695E+01 0.180E+00   -.548E+00 0.706E+00 0.908E-02
   0.858E+01 0.626E+01 -.778E+00   -.910E+01 -.638E+01 0.773E+00   0.502E+00 0.632E-01 0.252E-02
   0.117E+02 0.123E+02 0.496E+00   -.107E+02 -.113E+02 -.497E+00   -.747E+00 -.106E+01 0.420E-02
   0.939E+01 0.817E+01 -.359E+00   -.100E+02 -.804E+01 0.361E+00   0.580E+00 -.108E+00 -.277E-02
   -.310E+01 0.106E+02 -.577E+00   0.249E+01 -.103E+02 0.577E+00   0.553E+00 -.210E+00 -.182E-02
   -.109E+02 0.223E+02 0.347E+00   0.888E+01 -.229E+02 -.352E+00   0.186E+01 0.161E+00 0.683E-02
   -.300E+02 0.363E+02 0.380E+00   0.308E+02 -.391E+02 -.367E+00   -.992E+00 0.319E+01 -.113E-01
   0.244E+00 -.364E+02 0.588E+00   0.476E+00 0.406E+02 -.582E+00   -.641E+00 -.411E+01 -.592E-02
   0.404E+01 -.784E+01 -.400E+00   -.500E+01 0.656E+01 0.405E+00   0.865E+00 0.912E+00 -.645E-02
   0.156E+01 0.253E+00 -.780E+00   -.288E+01 -.669E+00 0.771E+00   0.104E+01 0.577E+00 0.545E-02
   0.118E+02 0.717E+01 -.378E+00   -.110E+02 -.803E+01 0.376E+00   -.661E+00 0.813E+00 -.204E-02
   0.121E+01 -.473E+00 -.114E+01   -.178E+01 0.216E+00 0.114E+01   0.515E+00 0.293E+00 -.520E-02
   0.234E+01 0.156E+01 -.745E+00   -.223E+01 -.159E+01 0.743E+00   -.247E-01 0.235E-01 0.160E-02
   0.234E+01 0.595E+01 -.849E+00   -.260E+01 -.621E+01 0.847E+00   0.301E+00 0.181E+00 -.188E-03
   -.534E+01 0.209E+01 -.102E+01   0.526E+01 -.214E+01 0.102E+01   0.134E-01 0.630E-01 -.391E-02
   -.780E+01 0.196E+01 -.731E+00   0.797E+01 -.209E+01 0.732E+00   -.189E+00 0.715E-01 -.190E-02
   -.494E+00 0.772E+01 -.931E+00   0.535E+00 -.783E+01 0.929E+00   -.423E-01 0.133E+00 0.128E-03
   -.102E+02 0.102E+02 -.386E+00   0.105E+02 -.104E+02 0.389E+00   -.143E+00 0.187E+00 -.247E-02
   -.446E+01 0.489E+01 -.792E+00   0.443E+01 -.511E+01 0.792E+00   0.178E-01 0.262E+00 -.181E-02
   -.732E+00 0.303E+01 -.121E+01   0.853E+00 -.304E+01 0.121E+01   -.188E+00 0.518E-01 -.178E-02
   -.567E+00 0.207E+01 -.128E+01   0.844E+00 -.214E+01 0.128E+01   -.208E+00 -.156E-01 -.255E-02
   -.158E+01 -.114E+02 -.189E+00   0.104E+01 0.118E+02 0.189E+00   0.512E+00 -.364E+00 0.668E-03
   -.785E+01 -.373E+01 -.588E+00   0.786E+01 0.392E+01 0.586E+00   -.928E-01 -.257E+00 0.196E-02
   0.666E+01 -.273E+01 -.158E+01   -.657E+01 0.281E+01 0.158E+01   -.671E-02 -.706E-01 -.239E-02
   0.863E+00 -.511E+01 -.109E+01   -.993E+00 0.529E+01 0.109E+01   0.157E+00 -.932E-01 0.243E-04
   0.697E+00 -.627E+01 -.480E+00   -.133E+01 0.622E+01 0.484E+00   0.709E+00 -.215E-01 -.347E-03
   0.174E+01 -.120E+01 -.479E+00   -.206E+01 0.149E+01 0.475E+00   0.249E+00 -.212E+00 0.454E-02
   0.303E+00 -.283E+01 -.106E+01   -.300E+00 0.284E+01 0.106E+01   -.650E-01 -.468E-01 0.880E-03
   0.281E+00 -.609E+01 -.688E+00   -.334E+00 0.611E+01 0.687E+00   0.602E-01 -.548E-01 0.200E-02
   0.434E+01 0.135E+01 -.994E+00   -.460E+01 -.132E+01 0.992E+00   0.284E+00 0.218E-01 0.227E-03
   0.102E+01 -.199E+01 -.735E+00   -.122E+01 0.180E+01 0.738E+00   0.179E+00 0.130E+00 -.186E-02
   -.691E+01 0.509E+00 -.639E+00   0.702E+01 -.444E+00 0.641E+00   -.126E+00 -.877E-02 -.748E-03
   0.100E+02 0.458E+02 0.175E+01   -.186E+01 -.451E+02 -.183E+01   -.810E+01 -.424E+00 0.793E-01
   -.378E+02 -.384E+02 0.104E+01   0.460E+02 0.379E+02 -.115E+01   -.842E+01 0.398E+00 0.102E+00
   0.216E+02 0.388E+02 0.870E+00   -.259E+02 -.311E+02 -.901E+00   0.439E+01 -.733E+01 0.337E-01
   0.270E+02 0.805E+01 0.779E+00   -.364E+02 -.759E+01 -.836E+00   0.954E+01 -.251E+00 0.532E-01
   0.338E+02 0.108E+02 -.491E+00   -.373E+02 -.170E+02 0.475E+00   0.387E+01 0.641E+01 0.127E-01
   0.179E+02 -.445E+02 0.178E+01   -.413E+02 0.456E+02 -.191E+01   0.221E+02 -.131E+01 0.124E+00
   -.783E+02 -.434E+02 0.811E+01   0.996E+02 0.405E+02 -.846E+01   -.207E+02 0.216E+01 0.348E+00
   -.274E+02 0.121E+02 0.779E+01   0.239E+02 -.144E+02 -.777E+01   0.415E+01 0.322E+01 -.210E-01
   -.242E+02 -.513E+02 0.668E+01   0.238E+02 0.515E+02 -.660E+01   -.248E+00 -.179E+00 -.758E-01
 -----------------------------------------------------------------------------------------------
   -.369E+01 -.284E+01 -.722E+00   0.497E-13 -.185E-12 0.187E-13   0.411E+01 0.340E+01 0.653E+00
 
 
 POSITION                                       TOTAL-FORCE (eV/Angst)
 -----------------------------------------------------------------------------------
      2.94467     -0.00035      9.86032         0.084449     -0.036265     -0.000744
      0.74335      1.22755      9.86341        -0.000579     -0.066935     -0.000109
      1.47919      0.00134      9.86253        -0.133665      0.016904      0.000510
      3.66334      1.25410      9.85689         0.021419     -0.027471      0.001725
      2.91112      2.49544      9.85609        -0.226897      0.169719      0.003047
      0.68128      3.67684      9.86519         0.092209      0.002829     -0.001384
      1.45652      2.46805      9.86157        -0.010193      0.049674      0.000535
      2.75561      4.91322      9.85693        -0.219196     -0.617613     -0.000097
      0.63882      6.16130      9.86846        -0.137408      0.054083     -0.003394
      1.34839      4.91987      9.86498         0.160599     -0.114174     -0.004141
      3.44473      6.15925      9.85134         1.405851      0.150376     -0.015936
      2.74532      7.40855      9.85978         0.071852      0.450333     -0.005322
      0.67365      8.64740      9.86754         0.077946     -0.070794     -0.001349
      1.34010      7.40177      9.86725        -0.015593      0.141351     -0.004592
      2.89746      9.83185      9.86124        -0.123909     -0.094936     -0.003457
      0.73852     11.10288      9.86503         0.003734      0.062428      0.000401
      1.44459      9.86125      9.86503         0.026710     -0.047800     -0.000390
      3.66158     11.07201      9.86077        -0.069529      0.122580     -0.002447
      7.27929      0.00574      9.86282         0.009044     -0.060535     -0.002776
      5.12650      1.27698      9.85632         0.170470     -0.154154      0.002791
      5.83411      0.00889      9.86024        -0.004190      0.013724     -0.001054
      8.01663      1.23315      9.86208        -0.036400      0.095326     -0.002235
      7.30030      2.46669      9.85684        -0.117047     -0.394375      0.002117
      8.04294      3.72172      9.85650        -0.268775      0.557396      0.000352
      7.99404      6.11948      9.85550         0.047634     -0.189140      0.000278
      8.04629      8.60378      9.86070        -0.053682     -0.325992     -0.002432
      7.31311      9.87204      9.86229        -0.232953      0.193931     -0.002938
      5.12824     11.06281      9.86066         0.162366     -0.010345     -0.003418
      8.02320     11.10664      9.86510        -0.041020      0.044394     -0.003236
     11.63221     -0.00376      9.86613         0.092918     -0.007026     -0.000185
      9.45647      1.22119      9.86490         0.067387     -0.075533     -0.002341
     10.18751     -0.00184      9.86638        -0.070737      0.012618     -0.002258
     12.35912      1.22030      9.86563        -0.035120     -0.060527     -0.000973
     11.61179      2.44259      9.86625         0.001286      0.042201     -0.001695
      9.46907      3.68963      9.86196         0.129738      0.046152      0.000273
     10.17960      2.44820      9.86485        -0.019192      0.045821     -0.002006
     12.31551      3.67605      9.86694        -0.078659      0.036922     -0.002081
     11.59896      4.91241      9.86722         0.055820     -0.083439     -0.001855
      9.44219      6.14366      9.86125        -0.004635      0.016189      0.001406
     10.17352      4.91979      9.86366        -0.091463     -0.076736     -0.000661
     12.29429      6.15442      9.86856         0.097491      0.005029     -0.001762
     11.58860      7.39472      9.86730         0.032770      0.082929     -0.000185
      9.46831      8.62773      9.86372         0.108465     -0.075319      0.002928
     10.16187      7.38598      9.86410        -0.057930      0.070065      0.000959
     12.30764      8.63368      9.86757        -0.065067     -0.033486      0.000664
     11.61144      9.87180      9.86664         0.012242     -0.052396      0.001462
      9.46109     11.10131      9.86644         0.045715      0.052361     -0.002074
     10.18129      9.86825      9.86594        -0.013794     -0.051323      0.000518
     12.35729     11.09555      9.86627        -0.034274      0.059165      0.000967
      3.57260      3.76218      9.85092        -0.381940      0.332988      0.005065
      3.54423      8.56412      9.85519        -0.628667     -0.150824     -0.002088
      5.87641      2.51104      9.85310         0.306388      0.055732      0.004757
      7.30675      7.38625      9.85448         0.658489      0.216394     -0.001249
      5.88875      9.84561      9.85951         0.599616      0.446099     -0.002952
      7.32855      4.88407      9.85182         0.680125     -0.248830      0.007583
      4.76542      6.14970      9.83696        -1.230986     -0.543417      0.018446
      5.36727      4.31839      9.84402        -0.120089     -0.157355      0.011612
      5.42611      7.93665      9.84486        -0.699143      0.181027      0.017415
 -----------------------------------------------------------------------------------
    total drift:                                0.007375      0.004573     -0.000686


--------------------------------------------------------------------------------------------------------



  FREE ENERGIE OF THE ION-ELECTRON SYSTEM (eV)
  ---------------------------------------------------
  free  energy   TOTEN  =      -602.29690710 eV

  energy  without entropy=     -602.26839344  energy(sigma->0) =     -602.28265027
 


--------------------------------------------------------------------------------------------------------


    POTLOK:  cpu time    3.2937: real time    3.2940


--------------------------------------------------------------------------------------------------------


 stress matrix after NEB project (eV)
    -42.96651      0.20120      0.02639
      0.19845    -43.55532      0.00946
      0.02604      0.00935     -0.30582
  FORCES: max atom, RMS     1.413961    0.386136
  FORCE total and by dimension    2.940721    1.405851
  Stress total and by dimension   61.183021   43.555319
 writing wavefunctions
     LOOP+:  cpu time29890.3028: real time29895.5385
    4ORBIT:  cpu time    0.0000: real time    0.0000
 


 total charge     
 
# of ion       s       p       d       tot
------------------------------------------
    1        0.855   1.726   0.000   2.582
    2        0.863   1.751   0.000   2.614
    3        0.860   1.739   0.000   2.599
    4        0.863   1.698   0.000   2.562
    5        0.859   1.733   0.000   2.592
    6        0.867   1.780   0.000   2.647
    7        0.862   1.740   0.000   2.602
    8        0.886   1.801   0.000   2.687
    9        0.872   1.782   0.000   2.653
   10        0.877   1.788   0.000   2.665
   11        0.895   1.762   0.000   2.658
   12        0.886   1.797   0.000   2.683
   13        0.867   1.774   0.000   2.641
   14        0.877   1.794   0.000   2.671
   15        0.860   1.729   0.000   2.589
   16        0.864   1.752   0.000   2.616
   17        0.863   1.741   0.000   2.604
   18        0.861   1.699   0.000   2.560
   19        0.862   1.755   0.000   2.617
   20        0.855   1.715   0.000   2.570
   21        0.859   1.718   0.000   2.576
   22        0.867   1.752   0.000   2.620
   23        0.869   1.755   0.000   2.624
   24        0.869   1.720   0.000   2.589
   25        0.852   1.688   0.000   2.540
   26        0.871   1.737   0.000   2.608
   27        0.873   1.737   0.000   2.609
   28        0.855   1.712   0.000   2.567
   29        0.868   1.758   0.000   2.626
   30        0.865   1.764   0.000   2.629
   31        0.866   1.765   0.000   2.632
   32        0.865   1.762   0.000   2.628
   33        0.863   1.755   0.000   2.618
   34        0.867   1.769   0.000   2.636
   35        0.868   1.787   0.000   2.656
   36        0.867   1.763   0.000   2.630
   37        0.869   1.767   0.000   2.636
   38        0.867   1.778   0.000   2.645
   39        0.864   1.757   0.000   2.621
   40        0.872   1.769   0.000   2.642
   41        0.872   1.785   0.000   2.657
   42        0.867   1.767   0.000   2.633
   43        0.870   1.777   0.000   2.646
   44        0.866   1.769   0.000   2.635
   45        0.867   1.769   0.000   2.636
   46        0.867   1.768   0.000   2.635
   47        0.867   1.763   0.000   2.630
   48        0.867   1.762   0.000   2.629
   49        0.863   1.757   0.000   2.620
   50        0.880   1.639   0.000   2.519
   51        0.880   1.668   0.000   2.548
   52        0.875   1.626   0.000   2.501
   53        0.874   1.663   0.000   2.537
   54        0.872   1.653   0.000   2.525
   55        1.239   2.616   0.000   3.855
   56        1.262   2.565   0.000   3.828
   57        0.532   0.622   8.397   9.550
   58        0.523   0.717   6.011   7.251
--------------------------------------------------
tot         50.414 100.757  14.407 165.578
 


 magnetization (x)
 
# of ion       s       p       d       tot
------------------------------------------
    1        0.001   0.008   0.000   0.008
    2        0.000   0.004   0.000   0.004
    3       -0.000  -0.005   0.000  -0.006
    4       -0.001  -0.010   0.000  -0.010
    5        0.000  -0.002   0.000  -0.002
    6        0.000   0.001   0.000   0.002
    7       -0.001  -0.008   0.000  -0.008
    8        0.001   0.014   0.000   0.015
    9        0.001   0.010   0.000   0.011
   10       -0.001  -0.010   0.000  -0.011
   11        0.000  -0.011   0.000  -0.010
   12        0.002   0.020   0.000   0.022
   13        0.001   0.008   0.000   0.008
   14       -0.001  -0.011   0.000  -0.012
   15        0.001   0.015   0.000   0.016
   16        0.000   0.002   0.000   0.003
   17       -0.001  -0.008   0.000  -0.009
   18       -0.002  -0.025   0.000  -0.027
   19        0.001   0.010   0.000   0.011
   20        0.000   0.004   0.000   0.004
   21       -0.001  -0.010   0.000  -0.011
   22       -0.001  -0.007   0.000  -0.008
   23        0.001   0.011   0.000   0.012
   24       -0.001  -0.006   0.000  -0.007
   25        0.001   0.006   0.000   0.007
   26        0.002  -0.003   0.000  -0.001
   27        0.003   0.016   0.000   0.019
   28        0.001   0.015   0.000   0.016
   29       -0.001  -0.010   0.000  -0.010
   30        0.000   0.003   0.000   0.003
   31        0.000   0.005   0.000   0.006
   32       -0.000  -0.005   0.000  -0.005
   33       -0.000  -0.004   0.000  -0.005
   34        0.000  -0.001   0.000  -0.001
   35        0.000   0.001   0.000   0.001
   36       -0.000  -0.003   0.000  -0.003
   37       -0.000  -0.003   0.000  -0.003
   38        0.000   0.005   0.000   0.005
   39       -0.000  -0.001   0.000  -0.001
   40       -0.000  -0.002   0.000  -0.002
   41       -0.000  -0.003   0.000  -0.004
   42        0.000   0.001   0.000   0.001
   43        0.000   0.003   0.000   0.003
   44       -0.000   0.000   0.000  -0.000
   45       -0.001  -0.007   0.000  -0.008
   46        0.000   0.005   0.000   0.006
   47        0.000   0.003   0.000   0.004
   48       -0.001  -0.009   0.000  -0.009
   49       -0.000  -0.006   0.000  -0.006
   50       -0.001  -0.007   0.000  -0.008
   51       -0.014  -0.066   0.000  -0.080
   52       -0.001  -0.008   0.000  -0.009
   53       -0.007  -0.028   0.000  -0.035
   54       -0.015  -0.077   0.000  -0.092
   55        0.001   0.016   0.000   0.017
   56       -0.000   0.037   0.000   0.037
   57        0.001   0.001   0.117   0.119
   58        0.062   0.031   2.880   2.973
--------------------------------------------------
tot          0.031  -0.099   2.997   2.929
 

 total amount of memory used by VASP MPI-rank0   173969. kBytes
=======================================================================

   base      :      30000. kBytes
   nonl-proj :       5339. kBytes
   fftplans  :      12934. kBytes
   grid      :      33177. kBytes
   one-center:         62. kBytes
   HF        :         23. kBytes
   nonlr-proj:      14770. kBytes
   wavefun   :      77664. kBytes
 
  
  
 General timing and accounting informations for this job:
 ========================================================
  
                  Total CPU time used (sec):    29977.863
                            User time (sec):    29932.515
                          System time (sec):       45.349
                         Elapsed time (sec):    29984.260
  
                   Maximum memory used (kb):      411656.
                   Average memory used (kb):           0.
  
                          Minor page faults:       296357
                          Major page faults:            2
                 Voluntary context switches:         1466
