 vasp.5.4.4.18Apr17-6-g9f103f2a35 (build Feb 25 2019 10:51:38) complex          
  
 executed on             LinuxIFC date 2021.06.19  03:10:07
 running on   80 total cores
 distrk:  each k-point on   40 cores,    2 groups
 distr:  one band on NCORES_PER_BAND=  40 cores,    1 groups


--------------------------------------------------------------------------------------------------------


 INCAR:
 POTCAR:    PAW_PBE C 08Apr2002                   
 POTCAR:    PAW_PBE N 08Apr2002                   
 POTCAR:    PAW_PBE Fe 06Sep2000                  
 POTCAR:    PAW_PBE Mn 06Sep2000                  

 ----------------------------------------------------------------------------- 
|                                                                             |
|           W    W    AA    RRRRR   N    N  II  N    N   GGGG   !!!           |
|           W    W   A  A   R    R  NN   N  II  NN   N  G    G  !!!           |
|           W    W  A    A  R    R  N N  N  II  N N  N  G       !!!           |
|           W WW W  AAAAAA  RRRRR   N  N N  II  N  N N  G  GGG   !            |
|           WW  WW  A    A  R   R   N   NN  II  N   NN  G    G                |
|           W    W  A    A  R    R  N    N  II  N    N   GGGG   !!!           |
|                                                                             |
|      For optimal performance we recommend to set                            |
|        NCORE= 4 - approx SQRT( number of cores)                             |
|      NCORE specifies how many cores store one orbital (NPAR=cpu/NCORE).     |
|      This setting can  greatly improve the performance of VASP for DFT.     |
|      The default,   NCORE=1            might be grossly inefficient         |
|      on modern multi-core architectures or massively parallel machines.     |
|      Do your own testing !!!!                                               |
|      Unfortunately you need to use the default for GW and RPA calculations. |
|      (for HF NCORE is supported but not extensively tested yet)             |
|                                                                             |
 ----------------------------------------------------------------------------- 


 ----------------------------------------------------------------------------- 
|                                                                             |
|           W    W    AA    RRRRR   N    N  II  N    N   GGGG   !!!           |
|           W    W   A  A   R    R  NN   N  II  NN   N  G    G  !!!           |
|           W    W  A    A  R    R  N N  N  II  N N  N  G       !!!           |
|           W WW W  AAAAAA  RRRRR   N  N N  II  N  N N  G  GGG   !            |
|           WW  WW  A    A  R   R   N   NN  II  N   NN  G    G                |
|           W    W  A    A  R    R  N    N  II  N    N   GGGG   !!!           |
|                                                                             |
|      You have enabled k-point parallelism (KPAR>1).                         |
|      This developmental code was originally  written by Paul Kent at ORNL,  |
|      and carefully double checked in Vienna.                                |
|      GW as well as linear response parallelism added by Martijn Marsman     |
|      and Georg Kresse.                                                      |
|      Carefully verify results versus KPAR=1.                                |
|      Report problems to Paul Kent and Vienna.                               |
|                                                                             |
 ----------------------------------------------------------------------------- 

 POTCAR:    PAW_PBE C 08Apr2002                   
   VRHFIN =C: s2p2                                                              
   LEXCH  = PE                                                                  
   EATOM  =   147.1560 eV,   10.8157 Ry                                         
                                                                                
   TITEL  = PAW_PBE C 08Apr2002                                                 
   LULTRA =        F    use ultrasoft PP ?                                      
   IUNSCR =        1    unscreen: 0-lin 1-nonlin 2-no                           
   RPACOR =    1.200    partial core radius                                     
   POMASS =   12.011; ZVAL   =    4.000    mass and valenz                      
   RCORE  =    1.500    outmost cutoff radius                                   
   RWIGS  =    1.630; RWIGS  =    0.863    wigner-seitz radius (au A)           
   ENMAX  =  400.000; ENMIN  =  300.000 eV                                      
   ICORE  =        2    local potential                                         
   LCOR   =        T    correct aug charges                                     
   LPAW   =        T    paw PP                                                  
   EAUG   =  644.873                                                            
   DEXC   =    0.000                                                            
   RMAX   =    1.529    core radius for proj-oper                               
   RAUG   =    1.300    factor for augmentation sphere                          
   RDEP   =    1.501    radius for radial grids                                 
   RDEPT  =    1.300    core radius for aug-charge                              
                                                                                
   Atomic configuration                                                         
    4 entries                                                                   
     n  l   j            E        occ.                                          
     1  0  0.50      -273.3789   2.0000                                         
     2  0  0.50       -13.7508   2.0000                                         
     2  1  0.50        -5.2854   2.0000                                         
     3  2  1.50        -5.4423   0.0000                                         
   Description                                                                  
     l       E           TYP  RCUT    TYP  RCUT                                 
     0    -13.7508458     23  1.200                                             
     0     -8.2022199     23  1.200                                             
     1     -5.2854383     23  1.500                                             
     1     34.0145650     23  1.500                                             
     2     -5.4423304      7  1.500                                             
  local pseudopotential read in
  partial core-charges read in
  partial kinetic energy density read in
  atomic valenz-charges read in
  non local Contribution for L=           0  read in
    real space projection operators read in
  non local Contribution for L=           0  read in
    real space projection operators read in
  non local Contribution for L=           1  read in
    real space projection operators read in
  non local Contribution for L=           1  read in
    real space projection operators read in
    PAW grid and wavefunctions read in
 
   number of l-projection  operators is LMAX  =           4
   number of lm-projection operators is LMMAX =           8
 
 POTCAR:    PAW_PBE N 08Apr2002                   
   VRHFIN =N: s2p3                                                              
   LEXCH  = PE                                                                  
   EATOM  =   264.5486 eV,   19.4438 Ry                                         
                                                                                
   TITEL  = PAW_PBE N 08Apr2002                                                 
   LULTRA =        F    use ultrasoft PP ?                                      
   IUNSCR =        1    unscreen: 0-lin 1-nonlin 2-no                           
   RPACOR =    1.200    partial core radius                                     
   POMASS =   14.001; ZVAL   =    5.000    mass and valenz                      
   RCORE  =    1.500    outmost cutoff radius                                   
   RWIGS  =    1.400; RWIGS  =    0.741    wigner-seitz radius (au A)           
   ENMAX  =  400.000; ENMIN  =  300.000 eV                                      
   ICORE  =        2    local potential                                         
   LCOR   =        T    correct aug charges                                     
   LPAW   =        T    paw PP                                                  
   EAUG   =  627.112                                                            
   DEXC   =    0.000                                                            
   RMAX   =    1.529    core radius for proj-oper                               
   RAUG   =    1.300    factor for augmentation sphere                          
   RDEP   =    1.514    radius for radial grids                                 
   RDEPT  =    1.338    core radius for aug-charge                              
                                                                                
   Atomic configuration                                                         
    4 entries                                                                   
     n  l   j            E        occ.                                          
     1  0  0.50      -384.7179   2.0000                                         
     2  0  0.50       -18.5828   2.0000                                         
     2  1  0.50        -7.0898   3.0000                                         
     3  2  1.50        -6.8029   0.0000                                         
   Description                                                                  
     l       E           TYP  RCUT    TYP  RCUT                                 
     0    -18.5828119     23  1.200                                             
     0    -13.5018863     23  1.200                                             
     1     -7.0897853     23  1.500                                             
     1      9.5240782     23  1.500                                             
     2     -6.8029130      7  1.500                                             
  local pseudopotential read in
  partial core-charges read in
  partial kinetic energy density read in
  atomic valenz-charges read in
  non local Contribution for L=           0  read in
    real space projection operators read in
  non local Contribution for L=           0  read in
    real space projection operators read in
  non local Contribution for L=           1  read in
    real space projection operators read in
  non local Contribution for L=           1  read in
    real space projection operators read in
    PAW grid and wavefunctions read in
 
   number of l-projection  operators is LMAX  =           4
   number of lm-projection operators is LMMAX =           8
 
 POTCAR:    PAW_PBE Fe 06Sep2000                  
   VRHFIN =Fe:  d7 s1                                                           
   LEXCH  = PE                                                                  
   EATOM  =   594.3153 eV,   43.6809 Ry                                         
                                                                                
   TITEL  = PAW_PBE Fe 06Sep2000                                                
   LULTRA =        F    use ultrasoft PP ?                                      
   IUNSCR =        1    unscreen: 0-lin 1-nonlin 2-no                           
   RPACOR =    2.000    partial core radius                                     
   POMASS =   55.847; ZVAL   =    8.000    mass and valenz                      
   RCORE  =    2.300    outmost cutoff radius                                   
   RWIGS  =    2.460; RWIGS  =    1.302    wigner-seitz radius (au A)           
   ENMAX  =  267.882; ENMIN  =  200.911 eV                                      
   RCLOC  =    1.701    cutoff for local pot                                    
   LCOR   =        T    correct aug charges                                     
   LPAW   =        T    paw PP                                                  
   EAUG   =  511.368                                                            
   DEXC   =    0.000                                                            
   RMAX   =    2.356    core radius for proj-oper                               
   RAUG   =    1.300    factor for augmentation sphere                          
   RDEP   =    2.442    radius for radial grids                                 
   RDEPT  =    1.890    core radius for aug-charge                              
                                                                                
   Atomic configuration                                                         
    9 entries                                                                   
     n  l   j            E        occ.                                          
     1  0  0.50     -6993.8440   2.0000                                         
     2  0  0.50      -814.6047   2.0000                                         
     2  1  1.50      -693.3689   6.0000                                         
     3  0  0.50       -89.4732   2.0000                                         
     3  1  1.50       -55.6373   6.0000                                         
     3  2  2.50        -3.8151   7.0000                                         
     4  0  0.50        -4.2551   1.0000                                         
     4  1  1.50        -3.4015   0.0000                                         
     4  3  2.50        -1.3606   0.0000                                         
   Description                                                                  
     l       E           TYP  RCUT    TYP  RCUT                                 
     2     -3.8151135     23  2.300                                             
     2     -5.1756961     23  2.300                                             
     0     -4.2550963     23  2.300                                             
     0      7.2035603     23  2.300                                             
     1     -2.7211652     23  2.300                                             
     1     18.4316424     23  2.300                                             
  local pseudopotential read in
  partial core-charges read in
  partial kinetic energy density read in
  atomic valenz-charges read in
  non local Contribution for L=           2  read in
    real space projection operators read in
  non local Contribution for L=           2  read in
    real space projection operators read in
  non local Contribution for L=           0  read in
    real space projection operators read in
  non local Contribution for L=           0  read in
    real space projection operators read in
  non local Contribution for L=           1  read in
    real space projection operators read in
  non local Contribution for L=           1  read in
    real space projection operators read in
    PAW grid and wavefunctions read in
 
   number of l-projection  operators is LMAX  =           6
   number of lm-projection operators is LMMAX =          18
 
 POTCAR:    PAW_PBE Mn 06Sep2000                  
   VRHFIN =Mn: d6 s1                                                            
   LEXCH  = PE                                                                  
   EATOM  =   416.7541 eV,   30.6306 Ry                                         
                                                                                
   TITEL  = PAW_PBE Mn 06Sep2000                                                
   LULTRA =        F    use ultrasoft PP ?                                      
   IUNSCR =        1    unscreen: 0-lin 1-nonlin 2-no                           
   RPACOR =    2.000    partial core radius                                     
   POMASS =   54.938; ZVAL   =    7.000    mass and valenz                      
   RCORE  =    2.300    outmost cutoff radius                                   
   RWIGS  =    2.500; RWIGS  =    1.323    wigner-seitz radius (au A)           
   ENMAX  =  269.864; ENMIN  =  202.398 eV                                      
   RCLOC  =    1.725    cutoff for local pot                                    
   LCOR   =        T    correct aug charges                                     
   LPAW   =        T    paw PP                                                  
   EAUG   =  500.711                                                            
   DEXC   =    0.000                                                            
   RMAX   =    2.343    core radius for proj-oper                               
   RAUG   =    1.300    factor for augmentation sphere                          
   RDEP   =    2.338    radius for radial grids                                 
   RDEPT  =    1.911    core radius for aug-charge                              
                                                                                
   Atomic configuration                                                         
    9 entries                                                                   
     n  l   j            E        occ.                                          
     1  0  0.50     -6424.8288   2.0000                                         
     2  0  0.50      -739.1154   2.0000                                         
     2  1  1.50      -625.3949   6.0000                                         
     3  0  0.50       -81.6100   2.0000                                         
     3  1  1.50       -50.4667   6.0000                                         
     3  2  2.50        -3.3745   6.0000                                         
     4  0  0.50        -4.1331   1.0000                                         
     4  1  0.50        -4.0817   0.0000                                         
     4  3  2.50        -1.3606   0.0000                                         
   Description                                                                  
     l       E           TYP  RCUT    TYP  RCUT                                 
     2     -3.3744664     23  2.300                                             
     2     -4.7350490     23  2.300                                             
     0     -4.1331408     23  2.300                                             
     0      7.6656614     23  2.300                                             
     1     -2.7211652     23  2.300                                             
     1     20.4087390     23  2.300                                             
  local pseudopotential read in
  partial core-charges read in
  partial kinetic energy density read in
  atomic valenz-charges read in
  non local Contribution for L=           2  read in
    real space projection operators read in
  non local Contribution for L=           2  read in
    real space projection operators read in
  non local Contribution for L=           0  read in
    real space projection operators read in
  non local Contribution for L=           0  read in
    real space projection operators read in
  non local Contribution for L=           1  read in
    real space projection operators read in
  non local Contribution for L=           1  read in
    real space projection operators read in
    PAW grid and wavefunctions read in
 
   number of l-projection  operators is LMAX  =           6
   number of lm-projection operators is LMMAX =          18
 

 ----------------------------------------------------------------------------- 
|                                                                             |
|  ADVICE TO THIS USER RUNNING 'VASP/VAMP'   (HEAR YOUR MASTER'S VOICE ...):  |
|                                                                             |
|      You have a (more or less) 'large supercell' and for larger cells       |
|      it might be more efficient to use real space projection opertators     |
|      So try LREAL= Auto  in the INCAR   file.                               |
|      Mind:          For very  accurate calculation you might also keep the  |
|      reciprocal projection scheme          (i.e. LREAL=.FALSE.)             |
|                                                                             |
 ----------------------------------------------------------------------------- 

  PAW_PBE C 08Apr2002                   :
 energy of atom  1       EATOM= -147.1560
 kinetic energy error for atom=    0.0076 (will be added to EATOM!!)
  PAW_PBE N 08Apr2002                   :
 energy of atom  2       EATOM= -264.5486
 kinetic energy error for atom=    0.0138 (will be added to EATOM!!)
  PAW_PBE Fe 06Sep2000                  :
 energy of atom  3       EATOM= -594.3153
 kinetic energy error for atom=    0.0026 (will be added to EATOM!!)
  PAW_PBE Mn 06Sep2000                  :
 energy of atom  4       EATOM= -416.7541
 kinetic energy error for atom=    0.0024 (will be added to EATOM!!)
 
 
 POSCAR:  C  N Fe Mn                             
  positions in cartesian coordinates
  No initial velocities read in
 exchange correlation table for  LEXCH =        8
   RHO(1)=    0.500       N(1)  =     2000
   RHO(2)=  100.500       N(2)  =     4000

 VTST: version 3.2, (02/03/18)

 CHAIN: initializing optimizer
 
 OPT: Using VASP Conjugate-Gradient optimizer
 CHAIN: Read ICHAIN            0
 
 POSCAR:  C  N Fe Mn                             
  positions in cartesian coordinates
  No initial velocities read in
 


--------------------------------------------------------------------------------------------------------


 ion  position               nearest neighbor table
   1  0.221  1.000  0.500-   3 1.42  20 1.43   4 1.43
   2  0.055  0.101  0.500-  34 1.42   3 1.43   7 1.44
   3  0.110  1.000  0.500-   1 1.42   2 1.43  18 1.43
   4  0.277  0.099  0.500-  22 1.41   5 1.42   1 1.43
   5  0.224  0.200  0.500-   4 1.42   7 1.43   8 1.44
   6  0.056  0.301  0.500-   7 1.43  11 1.44  38 1.44
   7  0.111  0.201  0.500-   5 1.43   6 1.43   2 1.44
   8  0.284  0.299  0.500-  51 1.39   9 1.44   5 1.44
   9  0.227  0.399  0.500-   8 1.44  11 1.44  12 1.44
  10  0.056  0.500  0.500-  11 1.44  15 1.44  42 1.45
  11  0.113  0.400  0.500-   6 1.44  10 1.44   9 1.44
  12  0.284  0.499  0.500-  53 1.34   9 1.44  13 1.45
  13  0.227  0.601  0.500-  16 1.44  15 1.44  12 1.45
  14  0.056  0.699  0.500-  19 1.43  46 1.44  15 1.44
  15  0.114  0.600  0.500-  14 1.44  10 1.44  13 1.44
  16  0.284  0.701  0.500-  55 1.39  17 1.44  13 1.44
  17  0.224  0.800  0.500-  20 1.43  19 1.43  16 1.44
  18  0.055  0.899  0.500-  50 1.42   3 1.43  19 1.44
  19  0.111  0.799  0.500-  17 1.43  14 1.43  18 1.44
  20  0.277  0.901  0.500-  28 1.42   1 1.43  17 1.43
  21  0.555  0.000  0.500-  23 1.41  24 1.42  30 1.42
  22  0.388  0.099  0.500-  26 1.41   4 1.41  23 1.42
  23  0.444  0.000  0.500-  21 1.41  22 1.42  28 1.42
  24  0.610  0.099  0.500-  25 1.41  32 1.41  21 1.42
  25  0.555  0.197  0.500-  52 1.38  24 1.41  26 1.42
  26  0.443  0.197  0.500-  51 1.38  22 1.41  25 1.42
  27  0.555  0.804  0.500-  56 1.38  30 1.41  29 1.42
  28  0.388  0.902  0.500-  29 1.41  20 1.42  23 1.42
  29  0.443  0.804  0.500-  55 1.38  28 1.41  27 1.42
  30  0.610  0.902  0.500-  27 1.41  48 1.42  21 1.42
  31  0.889  1.000  0.500-  33 1.42  34 1.43  50 1.43
  32  0.722  0.099  0.500-  24 1.41  37 1.42  33 1.43
  33  0.777  1.000  0.500-  31 1.42  48 1.43  32 1.43
  34  0.943  0.101  0.500-   2 1.42  31 1.43  35 1.44
  35  0.887  0.201  0.500-  37 1.43  38 1.43  34 1.44
  36  0.714  0.299  0.500-  52 1.39  41 1.44  37 1.44
  37  0.774  0.200  0.500-  32 1.42  35 1.43  36 1.44
  38  0.943  0.301  0.500-  35 1.43  39 1.44   6 1.44
  39  0.885  0.400  0.500-  38 1.44  42 1.44  41 1.44
  40  0.715  0.499  0.500-  54 1.34  41 1.44  45 1.45
  41  0.771  0.399  0.500-  36 1.44  39 1.44  40 1.44
  42  0.942  0.500  0.500-  39 1.44  43 1.44  10 1.45
  43  0.885  0.600  0.500-  46 1.44  42 1.44  45 1.44
  44  0.715  0.701  0.500-  56 1.39  49 1.44  45 1.44
  45  0.771  0.601  0.500-  44 1.44  43 1.44  40 1.45
  46  0.943  0.699  0.500-  47 1.43  14 1.44  43 1.44
  47  0.887  0.799  0.500-  49 1.43  46 1.43  50 1.44
  48  0.722  0.901  0.500-  30 1.42  33 1.43  49 1.43
  49  0.775  0.800  0.500-  48 1.43  47 1.43  44 1.44
  50  0.943  0.899  0.500-  18 1.42  31 1.43  47 1.44
  51  0.394  0.295  0.500-  26 1.38   8 1.39  57 1.93
  52  0.605  0.295  0.500-  25 1.38  36 1.39  57 1.93
  53  0.389  0.499  0.500-  12 1.34  58 1.81  57 1.81
  54  0.610  0.499  0.500-  40 1.34  58 1.81  57 1.81
  55  0.393  0.706  0.500-  29 1.38  16 1.39  58 1.96
  56  0.605  0.706  0.500-  27 1.38  44 1.39  58 1.96
  57  0.499  0.407  0.500-  54 1.81  53 1.81  51 1.93  52 1.93  58 2.29
  58  0.499  0.591  0.500-  53 1.81  54 1.81  56 1.96  55 1.96  57 2.29
 
  LATTYP: Found a triclinic cell.
 ALAT       =    12.4720000000
 B/A-ratio  =     1.4268892192
 C/A-ratio  =     1.6086914689
 COS(alpha) =     0.0000414015
 COS(beta)  =     0.0002722714
 COS(gamma) =     0.7007617538
  
  Lattice vectors:
  
 A1 = (  -0.0011101551,  12.4719999506,   0.0000000000)
 A2 = (  12.6945898449,  12.4719999506,   0.0000000000)
 A3 = (  -0.0042021105,   0.0054623696, -20.0635988164)


Analysis of symmetry for initial positions (statically):
=====================================================================
 Subroutine PRICEL returns:
 Original cell was already a primitive cell.
 

 Routine SETGRP: Setting up the symmetry group for a 
 triclinic supercell.


 Subroutine GETGRP returns: Found  1 space group operations
 (whereof  1 operations were pure point group operations)
 out of a pool of  2 trial point group operations.


The static configuration has the point symmetry C_1 .


Analysis of symmetry for dynamics (positions and initial velocities):
=====================================================================
 Subroutine PRICEL returns:
 Original cell was already a primitive cell.
 

 Routine SETGRP: Setting up the symmetry group for a 
 triclinic supercell.


 Subroutine GETGRP returns: Found  1 space group operations
 (whereof  1 operations were pure point group operations)
 out of a pool of  2 trial point group operations.


The dynamic configuration has the point symmetry C_1 .


Analysis of structural, dynamic, and magnetic symmetry:
=====================================================================
 Subroutine PRICEL returns:
 Original cell was already a primitive cell.
 

 Routine SETGRP: Setting up the symmetry group for a 
 triclinic supercell.


 Subroutine GETGRP returns: Found  1 space group operations
 (whereof  1 operations were pure point group operations)
 out of a pool of  2 trial point group operations.


The magnetic configuration has the point symmetry C_1 .


 Subroutine INISYM returns: Found  1 space group operations
 (whereof  1 operations are pure point group operations),
 and found     1 'primitive' translations

 
 
 KPOINTS: KPOINTS created by Atomic Simulation Env

Automatic generation of k-mesh.
Space group operators:
 irot       det(A)        alpha          n_x          n_y          n_z        tau_x        tau_y        tau_z
    1     1.000000     0.000000     1.000000     0.000000     0.000000     0.000000     0.000000     0.000000
 
 Subroutine IBZKPT returns following result:
 ===========================================
 
 Found      2 irreducible k-points:
 
 Following reciprocal coordinates:
            Coordinates               Weight
  0.250000  0.250000 -0.000000      2.000000
 -0.250000  0.250000  0.000000      2.000000
 
 Following cartesian coordinates:
            Coordinates               Weight
  0.019692  0.020047  0.000001      2.000000
 -0.019692  0.020043  0.000010      2.000000
 
 
 Subroutine IBZKPT_HF returns following result:
 ==============================================
 
 Found      4 k-points in 1st BZ
 the following      4 k-points will be used (e.g. in the exchange kernel)
 Following reciprocal coordinates:   # in IRBZ
  0.250000  0.250000 -0.000000    0.25000000   1 t-inv F
 -0.250000  0.250000  0.000000    0.25000000   2 t-inv F
 -0.250000 -0.250000  0.000000    0.25000000   1 t-inv T
  0.250000 -0.250000 -0.000000    0.25000000   2 t-inv T


--------------------------------------------------------------------------------------------------------




 Dimension of arrays:
   k-points           NKPTS =      2   k-points in BZ     NKDIM =      4   number of bands    NBANDS=    156
   number of dos      NEDOS =    301   number of ions     NIONS =     58
   non local maximal  LDIM  =      6   non local SUM 2l+1 LMDIM =     18
   total plane-waves  NPLWV = ******
   max r-space proj   IRMAX =      1   max aug-charges    IRDMAX=  16196
   dimension x,y,z NGX =    96 NGY =   96 NGZ =  150
   dimension x,y,z NGXF=   192 NGYF=  192 NGZF=  300
   support grid    NGXF=   192 NGYF=  192 NGZF=  300
   ions per type =              50   6   1   1
   NGX,Y,Z   is equivalent  to a cutoff of  12.57, 12.80, 12.43 a.u.
   NGXF,Y,Z  is equivalent  to a cutoff of  25.14, 25.59, 24.86 a.u.

 SYSTEM =  unknown system                          
 POSCAR =   C  N Fe Mn                             

 Startparameter for this run:
   NWRITE =      2    write-flag & timer
   PREC   = accura    normal or accurate (medium, high low for compatibility)
   ISTART =      1    job   : 0-new  1-cont  2-samecut
   ICHARG =      0    charge: 1-file 2-atom 10-const
   ISPIN  =      2    spin polarized calculation?
   LNONCOLLINEAR =      F non collinear calculations
   LSORBIT =      F    spin-orbit coupling
   INIWAV =      1    electr: 0-lowe 1-rand  2-diag
   LASPH  =      T    aspherical Exc in radial PAW
   METAGGA=      F    non-selfconsistent MetaGGA calc.

 Electronic Relaxation 1
   ENCUT  =  500.0 eV  36.75 Ry    6.06 a.u.  23.15 22.74 36.58*2*pi/ulx,y,z
   ENINI  =  500.0     initial cutoff
   ENAUG  =  644.9 eV  augmentation charge cutoff
   NELM   =    250;   NELMIN=  2; NELMDL=  0     # of ELM steps 
   EDIFF  = 0.1E-03   stopping-criterion for ELM
   LREAL  =      F    real-space projection
   NLSPLINE    = F    spline interpolate recip. space projectors
   LCOMPAT=      F    compatible to vasp.4.4
   GGA_COMPAT  = T    GGA compatible to vasp.4.4-vasp.4.6
   LMAXPAW     = -100 max onsite density
   LMAXMIX     =    2 max onsite mixed and CHGCAR
   VOSKOWN=      0    Vosko Wilk Nusair interpolation
   ROPT   =    0.00000   0.00000   0.00000   0.00000
 Ionic relaxation
   EDIFFG = -.3E-01   stopping-criterion for IOM
   NSW    =      0    number of steps for IOM
   NBLOCK =      1;   KBLOCK =      1    inner block; outer block 
   IBRION =     -1    ionic relax: 0-MD 1-quasi-New 2-CG
   NFREE  =      1    steps in history (QN), initial steepest desc. (CG)
   ISIF   =      2    stress and relaxation
   IWAVPR =     10    prediction:  0-non 1-charg 2-wave 3-comb
   ISYM   =      3    0-nonsym 1-usesym 2-fastsym
   LCORR  =      T    Harris-Foulkes like correction to forces

   POTIM  = 0.5000    time-step for ionic-motion
   TEIN   =    0.0    initial temperature
   TEBEG  =    0.0;   TEEND  =   0.0 temperature during run
   SMASS  =  -3.00    Nose mass-parameter (am)
   estimated Nose-frequenzy (Omega)   =  0.10E-29 period in steps =****** mass=  -0.368E-26a.u.
   SCALEE = 1.0000    scale energy and forces
   NPACO  =    256;   APACO  = 16.0  distance and # of slots for P.C.
   PSTRESS=    0.0 pullay stress

  Mass of Ions in am
   POMASS =  12.01 14.00 55.85 54.94
  Ionic Valenz
   ZVAL   =   4.00  5.00  8.00  7.00
  Atomic Wigner-Seitz radii
   RWIGS  =  -1.00 -1.00 -1.00 -1.00
  virtual crystal weights 
   VCA    =   1.00  1.00  1.00  1.00
   NELECT =     245.0000    total number of electrons
   NUPDOWN=      -1.0000    fix difference up-down

 DOS related values:
   EMIN   =  10.00;   EMAX   =-10.00  energy-range for DOS
   EFERMI =   0.00
   ISMEAR =     0;   SIGMA  =   0.10  broadening in eV -4-tet -1-fermi 0-gaus

 Electronic relaxation 2 (details)
   IALGO  =     53    algorithm
   LDIAG  =      T    sub-space diagonalisation (order eigenvalues)
   LSUBROT=      F    optimize rotation matrix (better conditioning)
   TURBO    =      0    0=normal 1=particle mesh
   IRESTART =      0    0=no restart 2=restart with 2 vectors
   NREBOOT  =      0    no. of reboots
   NMIN     =      0    reboot dimension
   EREF     =   0.00    reference energy to select bands
   IMIX   =      4    mixing-type and parameters
     AMIX     =   0.40;   BMIX     =  1.00
     AMIX_MAG =   1.60;   BMIX_MAG =  1.00
     AMIN     =   0.10
     WC   =   100.;   INIMIX=   1;  MIXPRE=   1;  MAXMIX= -45

 Intra band minimization:
   WEIMIN = 0.0000     energy-eigenvalue tresh-hold
   EBREAK =  0.16E-06  absolut break condition
   DEPER  =   0.30     relativ break condition  

   TIME   =   0.20     timestep for ELM

  volume/ion in A,a.u.               =      54.77       369.63
  Fermi-wavevector in a.u.,A,eV,Ry     =   0.696835  1.316826  6.606695  0.485578
  Thomas-Fermi vector in A             =   1.779995
 
 Write flags
   LWAVE        =      T    write WAVECAR
   LDOWNSAMPLE  =      F    k-point downsampling of WAVECAR
   LCHARG       =      T    write CHGCAR
   LVTOT        =      F    write LOCPOT, total local potential
   LVHAR        =      F    write LOCPOT, Hartree potential only
   LELF         =      F    write electronic localiz. function (ELF)
   LORBIT       =     11    0 simple, 1 ext, 2 COOP (PROOUT), +10 PAW based schemes


 Dipole corrections
   LMONO  =      F    monopole corrections only (constant potential shift)
   LDIPOL =      T    correct potential (dipole corrections)
   IDIPOL =      3    1-x, 2-y, 3-z, 4-all directions 
   EPSILON=  1.0000000 bulk dielectric constant

 Exchange correlation treatment:
   GGA     =    PE    GGA type
   LEXCH   =     8    internal setting for exchange type
   VOSKOWN=      0    Vosko Wilk Nusair interpolation
   EXXOEP  =     0    0=HF, 1=EXX-LHF (local Hartree Fock) 2=EXX OEP
   LHFCALC =     T    Hartree Fock is set to
   LSYMGRAD=     F    symmetrize gradient (conserves proper symmetry)
   PRECFOCK=normal    Normal, Fast or Accurate (Low or Medium for compatibility)
   LRHFCALC=     F    long range Hartree Fock
   LRSCOR  =     F    long range correlation only (use DFT for short range part)
   LTHOMAS =     F    Thomas Fermi screening in HF
   LMODELHF=     F    short range full HF, long range fraction AEXX
   ENCUT4O =  -1.0   cutoff for four orbital integrals eV
   LMAXFOCK=     4    L truncation for augmentation on plane wave grid
   LMAXFOCKAE=  -1    L truncation for all-electron charge restoration on plane wave grid
   NMAXFOCKAE=   1    number of basis functions for all-electron charge restoration
   LFOCKAEDFT=     F  apply the AE augmentation even for DFT
   NKREDX  =     1    reduce k-point grid by
   NKREDY  =     1    reduce k-point grid by
   NKREDZ  =     1    reduce k-point grid by
   SHIFTRED=     F    shift reduced grid of Gamma
   HFKIDENT=     F    idential grid for each k-point
   ODDONLY =     F    use only odd q-grid points
   EVENONLY=     F    use only even q-grid points
   HFALPHA =   -1.0000 decay constant for conv. correction
   MCALPHA =    0.0000 extent of test-charge in conv. correction in multipole expansion
   AEXX    =    0.2500 exact exchange contribution
   HFSCREEN=    0.2000 screening length (either q_TF or 0.3 A-1)
   HFSCREENC=   0.2000 screening length for correlation (either q_TF or 0.3 A-1)
   HFRCUT  =    0.0000 spherical cutoff for potential kernel
   ALDAX   =    0.7500 LDA exchange part
   AGGAX   =    0.7500 GGA exchange part
   ALDAC   =    1.0000 LDA correlation
   AGGAC   =    1.0000 GGA correlation
   ENCUTFOCK=  -1.0 apply spherical cutoff to Coloumb kernel
   NBANDSGWLOW=     1    first orbital included in HF term
   NBLOCK_FOCK=    64    blocking factor in FOCK_ACC
 Linear response parameters
   LEPSILON=     F    determine dielectric tensor
   LRPA    =     F    only Hartree local field effects (RPA)
   LNABLA  =     F    use nabla operator in PAW spheres
   LVEL    =     F    velocity operator in full k-point grid
   LINTERFAST=   F  fast interpolation
   KINTER  =     0    interpolate to denser k-point grid
   CSHIFT  =0.1000    complex shift for real part using Kramers Kronig
   OMEGAMAX=  -1.0    maximum frequency
   DEG_THRESHOLD= 0.2000000E-02 threshold for treating states as degnerate
   RTIME   =   -0.100 relaxation time in fs
  (WPLASMAI=    0.000 imaginary part of plasma frequency in eV, 0.658/RTIME)
   DFIELD  = 0.0000000 0.0000000 0.0000000 field for delta impulse in time
 
 Orbital magnetization related:
   ORBITALMAG=     F  switch on orbital magnetization
   LCHIMAG   =     F  perturbation theory with respect to B field
   DQ        =  0.001000  dq finite difference perturbation B field
   LLRAUG    =     F  two centre corrections for induced B field



--------------------------------------------------------------------------------------------------------


 Static calculation
 charge density and potential will be updated during run
 spin polarized calculation
 Conjugate gradient for all bands (Freysoldt, et al. PRB 79, 241103 (2009))
 perform sub-space diagonalisation
    before iterative eigenvector-optimisation
 modified Broyden-mixing scheme, WC =      100.0
 initial mixing is a Kerker type mixing with AMIX =  0.4000 and BMIX =      1.0000
 Hartree-type preconditioning will be used
 using additional bands           33
 reciprocal scheme for non local part
 use partial core corrections
 no Harris-corrections to forces 
 use gradient corrections 
 use of overlap-Matrix (Vanderbilt PP)
 Gauss-broadening in eV      SIGMA  =   0.10


--------------------------------------------------------------------------------------------------------


  energy-cutoff  :      500.00
  volume of cell :     3176.89
      direct lattice vectors                 reciprocal lattice vectors
    12.695700000  0.000000000  0.000000000     0.078766827  0.000007011 -0.000016495
    -0.001110155 12.471999951  0.000000000     0.000000000  0.080179603  0.000021829
     0.004202111 -0.005462370 20.063598816     0.000000000  0.000000000  0.049841507

  length of vectors
    12.695700000 12.472000000 20.063600000     0.078766829  0.080179606  0.049841507


 
 old parameters found on file WAVECAR:
  energy-cutoff  :      500.00
  volume of cell :     3176.89
      direct lattice vectors                 reciprocal lattice vectors
    12.695700000  0.000000000  0.000000000     0.078766827  0.000007011 -0.000016495
    -0.001110155 12.471999951  0.000000000     0.000000000  0.080179603  0.000021829
     0.004202111 -0.005462370 20.063598816     0.000000000  0.000000000  0.049841507

  length of vectors

 
 k-points in units of 2pi/SCALE and weight: KPOINTS created by Atomic Simulation Env
   0.01969171  0.02004665  0.00000133       0.500
  -0.01969171  0.02004315  0.00000958       0.500
 
 k-points in reciprocal lattice and weights: KPOINTS created by Atomic Simulation Env
   0.25000000  0.25000000 -0.00000000       0.500
  -0.25000000  0.25000000  0.00000000       0.500
 
 position of ions in fractional coordinates (direct lattice) 
   0.22107920  0.99998360  0.50001519
   0.05526631  0.10083153  0.50001456
   0.10953413  0.99995131  0.50000371
   0.27668068  0.09937325  0.50000306
   0.22413544  0.20032236  0.49997612
   0.05577197  0.30093320  0.50002254
   0.11142112  0.20110886  0.50001285
   0.28408095  0.29864866  0.49987917
   0.22716800  0.39879220  0.49990308
   0.05630211  0.49982936  0.50002476
   0.11349906  0.39990377  0.49999902
   0.28357587  0.49933496  0.49982124
   0.22744740  0.60062286  0.49996163
   0.05577868  0.69869842  0.50002733
   0.11367444  0.59968421  0.50002099
   0.28367915  0.70128513  0.49998197
   0.22385853  0.79958998  0.50001207
   0.05521284  0.89905894  0.49999725
   0.11121999  0.79870992  0.50000892
   0.27658400  0.90062059  0.50002140
   0.55455638  0.00017002  0.50005238
   0.38811998  0.09868225  0.50000312
   0.44386461  0.00017665  0.50005116
   0.61031676  0.09867118  0.50000958
   0.55516363  0.19650056  0.49990281
   0.44328923  0.19650750  0.49989663
   0.55521428  0.80390578  0.50001571
   0.38806411  0.90168722  0.50004354
   0.44318248  0.80391117  0.50001625
   0.61034354  0.90167709  0.50004218
   0.88888700  0.99993829  0.50000454
   0.72175606  0.09935302  0.50001083
   0.77734155  0.99996185  0.50001697
   0.94317157  0.10082039  0.50001568
   0.88703241  0.20109420  0.50001679
   0.71438008  0.29861952  0.49989321
   0.77431905  0.20029780  0.49998589
   0.94268330  0.30092564  0.50002483
   0.88495014  0.39988678  0.50000450
   0.71485827  0.49929748  0.49983264
   0.77128285  0.39876689  0.49991497
   0.94212970  0.49982355  0.50002715
   0.88473766  0.59966588  0.50002451
   0.71471781  0.70125583  0.49998398
   0.77096384  0.60059802  0.49996815
   0.94262039  0.69869104  0.50002839
   0.88717759  0.79869443  0.50000907
   0.72182391  0.90059933  0.50002018
   0.77453757  0.79956596  0.50001135
   0.94319454  0.89904864  0.49999711
   0.39378765  0.29504687  0.49977606
   0.60467574  0.29503556  0.49978853
   0.38886052  0.49884258  0.49959041
   0.60957477  0.49883018  0.49960188
   0.39324740  0.70558790  0.49995313
   0.60514633  0.70557993  0.49995341
   0.49921673  0.40680693  0.49958607
   0.49922068  0.59077298  0.49970958
 
 position of ions in cartesian coordinates  (Angst):
   2.80774624 12.46906419 10.03210408
   0.70363372  1.25483953 10.03209155
   1.39160344 12.46866148 10.03187375
   3.51464566  1.23665202 10.03186070
   2.84743490  2.49568936 10.03132030
   0.70983129  3.75050760 10.03225168
   1.41644700  2.50549838 10.03205731
   3.60837549  3.72201549 10.02937515
   2.88571473  4.97100570 10.02985476
   0.71634093  6.23114041 10.03229618
   1.44260709  4.98486863 10.03177969
   3.60174018  6.22497541 10.02821290
   2.88903812  7.48823735 10.03102957
   0.70947487  8.71143529 10.03234772
   1.44461205  7.47653018 10.03222054
   3.60282781  8.74369701 10.03143766
   2.84325416  9.96975499 10.03204162
   0.70206863 11.21033190 10.03174415
   1.41323006  9.95877885 10.03197834
   3.51252881 11.22980861 10.03222880
   7.04258253 -0.00061094 10.03285029
   4.92944634  1.22803381 10.03186205
   5.63727304 -0.00052834 10.03282586
   7.75039009  1.22789573 10.03199159
   7.05007346  2.44802427 10.02984945
   5.62974949  2.44811089 10.02972548
   7.05004255 10.02358153 10.03211464
   4.92784579 11.24311153 10.03267300
   5.62772048 10.02364880 10.03212538
   7.74983877 11.24298518 10.03264570
  11.28603363 12.46849904 10.03189055
   9.16518921  1.23639965 10.03201667
   9.86988610 12.46879292 10.03213982
  11.97621253  1.25470064 10.03211402
  11.26337519  2.50531561 10.03213634
   9.07132421  3.72165198 10.02965673
   9.83240104  2.49538309 10.03151640
  11.96979147  3.75041321 10.03229756
  11.23671859  4.98465674 10.03188966
   9.07717225  6.22450788 10.02844162
   9.79363367  4.97068990 10.03009340
  11.96254227  6.23106792 10.03234410
  11.23379929  7.47630145 10.03229108
   9.07516536  8.74333162 10.03147790
   9.78935979  7.48792746 10.03116029
  11.96855123  8.71134325 10.03236898
  11.26455500  9.95858572 10.03198135
   9.16516113 11.22954350 10.03220432
   9.83451009  9.96945538 10.03202721
  11.97561787 11.21020342 10.03174150
   5.00118248  3.67709456 10.02730635
   7.67855448  3.67695347 10.02755666
   4.93840199  6.21883571 10.02358156
   7.74052399  6.21868094 10.02381163
   4.99386854  8.79736137 10.03085894
   7.68407380  8.79726190 10.03086461
   6.33955355  5.07096708 10.02349441
   6.33939992  7.36539103 10.02597245
 


--------------------------------------------------------------------------------------------------------


 k-point  1 :   0.2500 0.2500-0.0000  plane waves:   80646
 k-point  2 :  -0.2500 0.2500 0.0000  plane waves:   80642

 maximum and minimum number of plane-waves per node :      2037     1996

 maximum number of plane-waves:     80646
 maximum index in each direction: 
   IXMAX=   23   IYMAX=   22   IZMAX=   36
   IXMIN=  -23   IYMIN=  -22   IZMIN=  -36


 parallel 3D FFT for wavefunctions:
    minimum data exchange during FFTs selected (reduces bandwidth)
 parallel 3D FFT for charge:
    minimum data exchange during FFTs selected (reduces bandwidth)


 FFT grid for exact exchange (Hartree Fock) 
  NGX = 70; NGY = 70; NGZ =112

 
 Radii for the augmentation spheres in the non-local exchange
 for species   1 augmentation radius   0.874 (default was   0.699)
       energy cutoff for augmentation   2000.0
 for species   2 augmentation radius   0.886 (default was   0.709)
       energy cutoff for augmentation   2000.0
 for species   3 augmentation radius   1.263 (default was   1.010)
       energy cutoff for augmentation   2000.0
 for species   4 augmentation radius   1.276 (default was   1.021)
       energy cutoff for augmentation   2000.0

 real space projection operators:
  total allocation   :       2450.37 KBytes
  max/ min on nodes  :         78.94         48.52

 Maximum index for augmentation-charges in exchange           76
  SETUP_FOCK is finished

 total amount of memory used by VASP MPI-rank0   141105. kBytes
=======================================================================

   base      :      30000. kBytes
   nonl-proj :       4253. kBytes
   fftplans  :      11851. kBytes
   grid      :      31266. kBytes
   one-center:         62. kBytes
   HF        :         23. kBytes
   nonlr-proj:       1622. kBytes
   wavefun   :      62028. kBytes
 
     INWAV:  cpu time    3.0421: real time    5.5495
 Broyden mixing: mesh for mixing (old mesh)
   NGX = 47   NGY = 45   NGZ = 73
  (NGX  =192   NGY  =192   NGZ  =300)
  gives a total of 154395 points

 charge density for first step will be calculated from the start-wavefunctions


--------------------------------------------------------------------------------------------------------


 Maximum index for augmentation-charges          336 (set IRDMAX)


--------------------------------------------------------------------------------------------------------


 initial charge from wavefunction
 First call to EWALD:  gamma=   0.121
 Maximum number of real-space cells 3x 3x 2
 Maximum number of reciprocal cells 2x 2x 4

    FEWALD:  cpu time    0.0030: real time    0.0030


--------------------------------------- Iteration      1(   1)  ---------------------------------------


    POTLOK:  cpu time    1.0922: real time    1.0985
    SETDIJ:  cpu time    1.2460: real time    1.2495
    TRIAL :  cpu time  192.3758: real time  193.0576
    CORREC:  cpu time    0.0015: real time    0.0015
    CHARGE:  cpu time    0.9149: real time    0.9174
    --------------------------------------------
      LOOP:  cpu time  195.6527: real time  196.3485

 eigenvalue-minimisations  :     0
 total energy-change (2. order) :-0.6123072E+03  (-0.4705179E+00)
 number of electron     245.0000009 magnetization       1.0000971
 augmentation part       13.2866333 magnetization       0.6473218

 DIPCOR: dipole corrections for dipol
 direction  3 min pos     1,
 dipolmoment          -0.000000      0.000000     -0.000426 electrons x Angstroem
 Tr[quadrupol]     -6701.106830

 energy correction for charged system         0.000000 eV
 dipol+quadrupol energy correction            0.000000 eV
 added-field ion interaction          0.000000 eV  (added to PSCEN)


 Free energy of the ion-electron system (eV)
  ---------------------------------------------------
  alpha Z        PSCENC =       101.90492843
  Ewald energy   TEWEN  =     40116.60714823
  -Hartree energ DENC   =    -48597.71700780
  -exchange      EXHF   =       556.20257424
  -V(xc)+E(xc)   XCENC  =       614.45346408
  PAW double counting   =     26492.29183852   -26520.44285031
  entropy T*S    EENTRO =        -0.00002994
  eigenvalues    EBANDS =     -3216.18757392
  atomic energy  EATOM  =      9840.58036623
  ---------------------------------------------------
  free energy    TOTEN  =      -612.30718870 eV

  energy without entropy =     -612.30715876  energy(sigma->0) =     -612.30717373
  exchange ACFDT corr.  =        -0.00016768  see jH, gK, PRB 81, 115126


--------------------------------------------------------------------------------------------------------




--------------------------------------- Iteration      1(   2)  ---------------------------------------


    POTLOK:  cpu time    1.1048: real time    1.1098
    SETDIJ:  cpu time    1.2135: real time    1.2173
    TRIAL :  cpu time  192.2262: real time  192.8904
    CORREC:  cpu time    0.0014: real time    0.0014
    CHARGE:  cpu time    0.9136: real time    0.9160
    --------------------------------------------
      LOOP:  cpu time  195.4627: real time  196.1415

 eigenvalue-minimisations  :     0
 total energy-change (2. order) :-0.3869160E+00  (-0.4259472E+00)
 number of electron     245.0000009 magnetization       1.0000367
 augmentation part       13.2602781 magnetization       0.6550999

 DIPCOR: dipole corrections for dipol
 direction  3 min pos     1,
 dipolmoment          -0.000000      0.000000     -0.000276 electrons x Angstroem
 Tr[quadrupol]     -6700.920990

 energy correction for charged system         0.000000 eV
 dipol+quadrupol energy correction            0.000000 eV
 added-field ion interaction          0.000000 eV  (added to PSCEN)


 Free energy of the ion-electron system (eV)
  ---------------------------------------------------
  alpha Z        PSCENC =       101.90492843
  Ewald energy   TEWEN  =     40116.60714823
  -Hartree energ DENC   =    -48579.52423186
  -exchange      EXHF   =       556.07591981
  -V(xc)+E(xc)   XCENC  =       614.08182823
  PAW double counting   =     26632.71358201   -26660.08944211
  entropy T*S    EENTRO =        -0.00001185
  eigenvalues    EBANDS =     -3235.04417369
  atomic energy  EATOM  =      9840.58036623
  ---------------------------------------------------
  free energy    TOTEN  =      -612.69410465 eV

  energy without entropy =     -612.69409280  energy(sigma->0) =     -612.69409872
  exchange ACFDT corr.  =        -0.00001981  see jH, gK, PRB 81, 115126


--------------------------------------------------------------------------------------------------------




--------------------------------------- Iteration      1(   3)  ---------------------------------------


    POTLOK:  cpu time    1.1218: real time    1.1259
    SETDIJ:  cpu time    1.2098: real time    1.2141
    TRIAL :  cpu time  192.6719: real time  193.3298
    CORREC:  cpu time    0.0010: real time    0.0010
    CHARGE:  cpu time    0.9079: real time    0.9141
    --------------------------------------------
      LOOP:  cpu time  195.9146: real time  196.5922

 eigenvalue-minimisations  :     0
 total energy-change (2. order) :-0.3403162E+00  (-0.2763684E+00)
 number of electron     245.0000009 magnetization       1.0000127
 augmentation part       13.2634676 magnetization       0.6585373

 DIPCOR: dipole corrections for dipol
 direction  3 min pos     1,
 dipolmoment          -0.000000      0.000000     -0.000221 electrons x Angstroem
 Tr[quadrupol]     -6700.762470

 energy correction for charged system         0.000000 eV
 dipol+quadrupol energy correction            0.000000 eV
 added-field ion interaction          0.000000 eV  (added to PSCEN)


 Free energy of the ion-electron system (eV)
  ---------------------------------------------------
  alpha Z        PSCENC =       101.90492843
  Ewald energy   TEWEN  =     40116.60714823
  -Hartree energ DENC   =    -48564.33809559
  -exchange      EXHF   =       556.04629651
  -V(xc)+E(xc)   XCENC  =       613.75589508
  PAW double counting   =     26819.35405747   -26846.53610959
  entropy T*S    EENTRO =        -0.00000425
  eigenvalues    EBANDS =     -3250.40889579
  atomic energy  EATOM  =      9840.58036623
  ---------------------------------------------------
  free energy    TOTEN  =      -613.03442086 eV

  energy without entropy =     -613.03441662  energy(sigma->0) =     -613.03441874
  exchange ACFDT corr.  =        -0.00000714  see jH, gK, PRB 81, 115126


--------------------------------------------------------------------------------------------------------




--------------------------------------- Iteration      1(   4)  ---------------------------------------


    POTLOK:  cpu time    1.1196: real time    1.1251
    SETDIJ:  cpu time    1.2049: real time    1.2093
    TRIAL :  cpu time  191.9446: real time  192.5729
    CORREC:  cpu time    0.0011: real time    0.0011
    CHARGE:  cpu time    0.9381: real time    0.9408
    --------------------------------------------
      LOOP:  cpu time  195.2100: real time  195.8550

 eigenvalue-minimisations  :     0
 total energy-change (2. order) :-0.2216795E+00  (-0.1831788E+00)
 number of electron     245.0000009 magnetization       1.0000048
 augmentation part       13.2636479 magnetization       0.6539112

 DIPCOR: dipole corrections for dipol
 direction  3 min pos     1,
 dipolmoment          -0.000000      0.000000     -0.000154 electrons x Angstroem
 Tr[quadrupol]     -6700.717332

 energy correction for charged system         0.000000 eV
 dipol+quadrupol energy correction            0.000000 eV
 added-field ion interaction          0.000000 eV  (added to PSCEN)


 Free energy of the ion-electron system (eV)
  ---------------------------------------------------
  alpha Z        PSCENC =       101.90492843
  Ewald energy   TEWEN  =     40116.60714823
  -Hartree energ DENC   =    -48558.72837314
  -exchange      EXHF   =       556.24277108
  -V(xc)+E(xc)   XCENC  =       613.68074130
  PAW double counting   =     26979.59404406   -27006.95571620
  entropy T*S    EENTRO =        -0.00000157
  eigenvalues    EBANDS =     -3256.18200610
  atomic energy  EATOM  =      9840.58036623
  ---------------------------------------------------
  free energy    TOTEN  =      -613.25610036 eV

  energy without entropy =     -613.25609878  energy(sigma->0) =     -613.25609957
  exchange ACFDT corr.  =        -0.00000239  see jH, gK, PRB 81, 115126


--------------------------------------------------------------------------------------------------------




--------------------------------------- Iteration      1(   5)  ---------------------------------------


    POTLOK:  cpu time    1.1240: real time    1.1294
    SETDIJ:  cpu time    1.2095: real time    1.2128
    TRIAL :  cpu time  192.2749: real time  192.9075
    CORREC:  cpu time    0.0011: real time    0.0011
    CHARGE:  cpu time    0.9160: real time    0.9188
    --------------------------------------------
      LOOP:  cpu time  195.5281: real time  196.1761

 eigenvalue-minimisations  :     0
 total energy-change (2. order) :-0.1552119E+00  (-0.1347097E+00)
 number of electron     245.0000009 magnetization       1.0000021
 augmentation part       13.2623389 magnetization       0.6454685

 DIPCOR: dipole corrections for dipol
 direction  3 min pos     1,
 dipolmoment          -0.000000      0.000000     -0.000009 electrons x Angstroem
 Tr[quadrupol]     -6700.753970

 energy correction for charged system         0.000000 eV
 dipol+quadrupol energy correction            0.000000 eV
 added-field ion interaction          0.000000 eV  (added to PSCEN)


 Free energy of the ion-electron system (eV)
  ---------------------------------------------------
  alpha Z        PSCENC =       101.90492843
  Ewald energy   TEWEN  =     40116.60714823
  -Hartree energ DENC   =    -48559.57038511
  -exchange      EXHF   =       556.59628674
  -V(xc)+E(xc)   XCENC  =       613.80855975
  PAW double counting   =     27091.30900359   -27118.77138827
  entropy T*S    EENTRO =        -0.00000063
  eigenvalues    EBANDS =     -3255.87583026
  atomic energy  EATOM  =      9840.58036623
  ---------------------------------------------------
  free energy    TOTEN  =      -613.41131225 eV

  energy without entropy =     -613.41131162  energy(sigma->0) =     -613.41131194
  exchange ACFDT corr.  =        -0.00000083  see jH, gK, PRB 81, 115126


--------------------------------------------------------------------------------------------------------




--------------------------------------- Iteration      1(   6)  ---------------------------------------


    POTLOK:  cpu time    1.1228: real time    1.1279
    SETDIJ:  cpu time    1.2242: real time    1.2295
    TRIAL :  cpu time  192.6708: real time  193.3024
    CORREC:  cpu time    0.0010: real time    0.0010
    CHARGE:  cpu time    0.9139: real time    0.9163
    --------------------------------------------
      LOOP:  cpu time  195.9351: real time  196.5846

 eigenvalue-minimisations  :     0
 total energy-change (2. order) :-0.1165234E+00  (-0.9911713E-01)
 number of electron     245.0000009 magnetization       1.0000012
 augmentation part       13.2668989 magnetization       0.6376431

 DIPCOR: dipole corrections for dipol
 direction  3 min pos     1,
 dipolmoment           0.000000     -0.000000      0.000121 electrons x Angstroem
 Tr[quadrupol]     -6700.816300

 energy correction for charged system         0.000000 eV
 dipol+quadrupol energy correction            0.000000 eV
 added-field ion interaction          0.000000 eV  (added to PSCEN)


 Free energy of the ion-electron system (eV)
  ---------------------------------------------------
  alpha Z        PSCENC =       101.90492843
  Ewald energy   TEWEN  =     40116.60714823
  -Hartree energ DENC   =    -48562.97941323
  -exchange      EXHF   =       556.97310969
  -V(xc)+E(xc)   XCENC  =       614.01301874
  PAW double counting   =     27161.42990218   -27188.92790525
  entropy T*S    EENTRO =        -0.00000027
  eigenvalues    EBANDS =     -3253.12899002
  atomic energy  EATOM  =      9840.58036623
  ---------------------------------------------------
  free energy    TOTEN  =      -613.52783563 eV

  energy without entropy =     -613.52783535  energy(sigma->0) =     -613.52783549
  exchange ACFDT corr.  =        -0.00000031  see jH, gK, PRB 81, 115126


--------------------------------------------------------------------------------------------------------




--------------------------------------- Iteration      1(   7)  ---------------------------------------


    POTLOK:  cpu time    1.1184: real time    1.1228
    SETDIJ:  cpu time    1.2223: real time    1.2283
    TRIAL :  cpu time  192.7386: real time  193.3686
    CORREC:  cpu time    0.0009: real time    0.0009
    CHARGE:  cpu time    0.9083: real time    0.9107
    --------------------------------------------
      LOOP:  cpu time  195.9903: real time  196.6381

 eigenvalue-minimisations  :     0
 total energy-change (2. order) :-0.8791502E-01  (-0.7613878E-01)
 number of electron     245.0000009 magnetization       1.0000008
 augmentation part       13.2748729 magnetization       0.6314341

 DIPCOR: dipole corrections for dipol
 direction  3 min pos     1,
 dipolmoment           0.000000     -0.000000      0.000193 electrons x Angstroem
 Tr[quadrupol]     -6700.869564

 energy correction for charged system         0.000000 eV
 dipol+quadrupol energy correction            0.000000 eV
 added-field ion interaction          0.000000 eV  (added to PSCEN)


 Free energy of the ion-electron system (eV)
  ---------------------------------------------------
  alpha Z        PSCENC =       101.90492843
  Ewald energy   TEWEN  =     40116.60714823
  -Hartree energ DENC   =    -48566.53079715
  -exchange      EXHF   =       557.28896357
  -V(xc)+E(xc)   XCENC  =       614.20599963
  PAW double counting   =     27203.73893812   -27231.31753040
  entropy T*S    EENTRO =        -0.00000013
  eigenvalues    EBANDS =     -3250.09376704
  atomic energy  EATOM  =      9840.58036623
  ---------------------------------------------------
  free energy    TOTEN  =      -613.61575064 eV

  energy without entropy =     -613.61575051  energy(sigma->0) =     -613.61575058
  exchange ACFDT corr.  =        -0.00000013  see jH, gK, PRB 81, 115126


--------------------------------------------------------------------------------------------------------




--------------------------------------- Iteration      1(   8)  ---------------------------------------


    POTLOK:  cpu time    1.1150: real time    1.1182
    SETDIJ:  cpu time    1.2109: real time    1.2149
    TRIAL :  cpu time  194.0892: real time  194.7335
    CORREC:  cpu time    0.0010: real time    0.0010
    CHARGE:  cpu time    0.9107: real time    0.9132
    --------------------------------------------
      LOOP:  cpu time  197.3290: real time  197.9869

 eigenvalue-minimisations  :     0
 total energy-change (2. order) :-0.6879231E-01  (-0.5998868E-01)
 number of electron     245.0000009 magnetization       1.0000007
 augmentation part       13.2809344 magnetization       0.6259663

 DIPCOR: dipole corrections for dipol
 direction  3 min pos     1,
 dipolmoment           0.000000     -0.000000      0.000220 electrons x Angstroem
 Tr[quadrupol]     -6700.901876

 energy correction for charged system         0.000000 eV
 dipol+quadrupol energy correction            0.000000 eV
 added-field ion interaction          0.000000 eV  (added to PSCEN)


 Free energy of the ion-electron system (eV)
  ---------------------------------------------------
  alpha Z        PSCENC =       101.90492843
  Ewald energy   TEWEN  =     40116.60714823
  -Hartree energ DENC   =    -48568.96970375
  -exchange      EXHF   =       557.52286093
  -V(xc)+E(xc)   XCENC  =       614.35392407
  PAW double counting   =     27228.80252581   -27256.49427999
  entropy T*S    EENTRO =        -0.00000007
  eigenvalues    EBANDS =     -3247.99231278
  atomic energy  EATOM  =      9840.58036623
  ---------------------------------------------------
  free energy    TOTEN  =      -613.68454295 eV

  energy without entropy =     -613.68454288  energy(sigma->0) =     -613.68454292
  exchange ACFDT corr.  =        -0.00000006  see jH, gK, PRB 81, 115126


--------------------------------------------------------------------------------------------------------




--------------------------------------- Iteration      1(   9)  ---------------------------------------


    POTLOK:  cpu time    1.1130: real time    1.1169
    SETDIJ:  cpu time    1.2161: real time    1.2192
    TRIAL :  cpu time  193.0970: real time  193.7214
    CORREC:  cpu time    0.0011: real time    0.0011
    CHARGE:  cpu time    0.9135: real time    0.9159
    --------------------------------------------
      LOOP:  cpu time  196.3430: real time  196.9811

 eigenvalue-minimisations  :     0
 total energy-change (2. order) :-0.5489703E-01  (-0.4819964E-01)
 number of electron     245.0000009 magnetization       1.0000006
 augmentation part       13.2837197 magnetization       0.6205732

 DIPCOR: dipole corrections for dipol
 direction  3 min pos     1,
 dipolmoment           0.000000     -0.000000      0.000239 electrons x Angstroem
 Tr[quadrupol]     -6700.916102

 energy correction for charged system         0.000000 eV
 dipol+quadrupol energy correction            0.000000 eV
 added-field ion interaction          0.000000 eV  (added to PSCEN)


 Free energy of the ion-electron system (eV)
  ---------------------------------------------------
  alpha Z        PSCENC =       101.90492843
  Ewald energy   TEWEN  =     40116.60714823
  -Hartree energ DENC   =    -48570.08282240
  -exchange      EXHF   =       557.69094199
  -V(xc)+E(xc)   XCENC  =       614.45935492
  PAW double counting   =     27243.46234761   -27271.24371307
  entropy T*S    EENTRO =        -0.00000004
  eigenvalues    EBANDS =     -3247.11799187
  atomic energy  EATOM  =      9840.58036623
  ---------------------------------------------------
  free energy    TOTEN  =      -613.73943999 eV

  energy without entropy =     -613.73943995  energy(sigma->0) =     -613.73943997
  exchange ACFDT corr.  =        -0.00000003  see jH, gK, PRB 81, 115126


--------------------------------------------------------------------------------------------------------




--------------------------------------- Iteration      1(  10)  ---------------------------------------


    POTLOK:  cpu time    1.1031: real time    1.1198
    SETDIJ:  cpu time    1.2205: real time    1.2236
    TRIAL :  cpu time  193.7263: real time  194.3599
    CORREC:  cpu time    0.0012: real time    0.0012
    CHARGE:  cpu time    0.9160: real time    0.9185
    --------------------------------------------
      LOOP:  cpu time  196.9689: real time  197.6297

 eigenvalue-minimisations  :     0
 total energy-change (2. order) :-0.4457465E-01  (-0.3935584E-01)
 number of electron     245.0000009 magnetization       1.0000006
 augmentation part       13.2850485 magnetization       0.6152069

 DIPCOR: dipole corrections for dipol
 direction  3 min pos     1,
 dipolmoment           0.000000     -0.000000      0.000268 electrons x Angstroem
 Tr[quadrupol]     -6700.920630

 energy correction for charged system         0.000000 eV
 dipol+quadrupol energy correction            0.000000 eV
 added-field ion interaction          0.000000 eV  (added to PSCEN)


 Free energy of the ion-electron system (eV)
  ---------------------------------------------------
  alpha Z        PSCENC =       101.90492843
  Ewald energy   TEWEN  =     40116.60714823
  -Hartree energ DENC   =    -48570.33376793
  -exchange      EXHF   =       557.81823423
  -V(xc)+E(xc)   XCENC  =       614.53803605
  PAW double counting   =     27252.16452177   -27279.99885709
  entropy T*S    EENTRO =        -0.00000003
  eigenvalues    EBANDS =     -3247.06462451
  atomic energy  EATOM  =      9840.58036623
  ---------------------------------------------------
  free energy    TOTEN  =      -613.78401464 eV

  energy without entropy =     -613.78401462  energy(sigma->0) =     -613.78401463
  exchange ACFDT corr.  =        -0.00000002  see jH, gK, PRB 81, 115126


--------------------------------------------------------------------------------------------------------




--------------------------------------- Iteration      1(  11)  ---------------------------------------


    POTLOK:  cpu time    1.1099: real time    1.1137
    SETDIJ:  cpu time    1.2003: real time    1.2039
    TRIAL :  cpu time  193.4012: real time  194.0280
    CORREC:  cpu time    0.0009: real time    0.0009
    CHARGE:  cpu time    0.9087: real time    0.9117
    --------------------------------------------
      LOOP:  cpu time  196.6228: real time  197.2643

 eigenvalue-minimisations  :     0
 total energy-change (2. order) :-0.3666581E-01  (-0.3249311E-01)
 number of electron     245.0000009 magnetization       1.0000006
 augmentation part       13.2866272 magnetization       0.6100140

 DIPCOR: dipole corrections for dipol
 direction  3 min pos     1,
 dipolmoment           0.000000     -0.000000      0.000302 electrons x Angstroem
 Tr[quadrupol]     -6700.922238

 energy correction for charged system         0.000000 eV
 dipol+quadrupol energy correction            0.000000 eV
 added-field ion interaction          0.000000 eV  (added to PSCEN)


 Free energy of the ion-electron system (eV)
  ---------------------------------------------------
  alpha Z        PSCENC =       101.90492843
  Ewald energy   TEWEN  =     40116.60714823
  -Hartree energ DENC   =    -48570.28611963
  -exchange      EXHF   =       557.92302926
  -V(xc)+E(xc)   XCENC  =       614.60350983
  PAW double counting   =     27257.84017532   -27285.71332398
  entropy T*S    EENTRO =        -0.00000002
  eigenvalues    EBANDS =     -3247.28039413
  atomic energy  EATOM  =      9840.58036623
  ---------------------------------------------------
  free energy    TOTEN  =      -613.82068045 eV

  energy without entropy =     -613.82068044  energy(sigma->0) =     -613.82068044
  exchange ACFDT corr.  =        -0.00000001  see jH, gK, PRB 81, 115126


--------------------------------------------------------------------------------------------------------




--------------------------------------- Iteration      1(  12)  ---------------------------------------


    POTLOK:  cpu time    1.1246: real time    1.1355
    SETDIJ:  cpu time    1.2159: real time    1.2220
    TRIAL :  cpu time  193.3771: real time  193.9963
    CORREC:  cpu time    0.0009: real time    0.0009
    CHARGE:  cpu time    0.9110: real time    0.9135
    --------------------------------------------
      LOOP:  cpu time  196.6311: real time  197.2741

 eigenvalue-minimisations  :     0
 total energy-change (2. order) :-0.3046550E-01  (-0.2710860E-01)
 number of electron     245.0000009 magnetization       1.0000006
 augmentation part       13.2886993 magnetization       0.6050921

 DIPCOR: dipole corrections for dipol
 direction  3 min pos     1,
 dipolmoment           0.000000     -0.000000      0.000334 electrons x Angstroem
 Tr[quadrupol]     -6700.923757

 energy correction for charged system         0.000000 eV
 dipol+quadrupol energy correction            0.000000 eV
 added-field ion interaction          0.000000 eV  (added to PSCEN)


 Free energy of the ion-electron system (eV)
  ---------------------------------------------------
  alpha Z        PSCENC =       101.90492843
  Ewald energy   TEWEN  =     40116.60714823
  -Hartree energ DENC   =    -48570.24532343
  -exchange      EXHF   =       558.01426280
  -V(xc)+E(xc)   XCENC  =       614.66230761
  PAW double counting   =     27262.36770174   -27290.28436167
  entropy T*S    EENTRO =        -0.00000001
  eigenvalues    EBANDS =     -3247.45817586
  atomic energy  EATOM  =      9840.58036623
  ---------------------------------------------------
  free energy    TOTEN  =      -613.85114595 eV

  energy without entropy =     -613.85114594  energy(sigma->0) =     -613.85114594
  exchange ACFDT corr.  =        -0.00000001  see jH, gK, PRB 81, 115126


--------------------------------------------------------------------------------------------------------




--------------------------------------- Iteration      1(  13)  ---------------------------------------


    POTLOK:  cpu time    1.1022: real time    1.1065
    SETDIJ:  cpu time    1.2066: real time    1.2110
    TRIAL :  cpu time  192.6560: real time  193.2781
    CORREC:  cpu time    0.0009: real time    0.0009
    CHARGE:  cpu time    0.9160: real time    0.9185
    --------------------------------------------
      LOOP:  cpu time  195.8838: real time  196.5217

 eigenvalue-minimisations  :     0
 total energy-change (2. order) :-0.2554398E-01  (-0.2278314E-01)
 number of electron     245.0000009 magnetization       1.0000005
 augmentation part       13.2907284 magnetization       0.6004204

 DIPCOR: dipole corrections for dipol
 direction  3 min pos     1,
 dipolmoment           0.000000     -0.000000      0.000362 electrons x Angstroem
 Tr[quadrupol]     -6700.925559

 energy correction for charged system         0.000000 eV
 dipol+quadrupol energy correction            0.000000 eV
 added-field ion interaction          0.000000 eV  (added to PSCEN)


 Free energy of the ion-electron system (eV)
  ---------------------------------------------------
  alpha Z        PSCENC =       101.90492843
  Ewald energy   TEWEN  =     40116.60714823
  -Hartree energ DENC   =    -48570.26987896
  -exchange      EXHF   =       558.09550395
  -V(xc)+E(xc)   XCENC  =       614.71625536
  PAW double counting   =     27266.83801027   -27294.80384404
  entropy T*S    EENTRO =        -0.00000001
  eigenvalues    EBANDS =     -3247.54517939
  atomic energy  EATOM  =      9840.58036623
  ---------------------------------------------------
  free energy    TOTEN  =      -613.87668993 eV

  energy without entropy =     -613.87668992  energy(sigma->0) =     -613.87668993
  exchange ACFDT corr.  =        -0.00000001  see jH, gK, PRB 81, 115126


--------------------------------------------------------------------------------------------------------




--------------------------------------- Iteration      1(  14)  ---------------------------------------


    POTLOK:  cpu time    1.1034: real time    1.1064
    SETDIJ:  cpu time    1.2029: real time    1.2090
    TRIAL :  cpu time  193.3337: real time  193.9584
    CORREC:  cpu time    0.0009: real time    0.0009
    CHARGE:  cpu time    0.9096: real time    0.9121
    --------------------------------------------
      LOOP:  cpu time  196.5528: real time  197.1930

 eigenvalue-minimisations  :     0
 total energy-change (2. order) :-0.2154689E-01  (-0.1924291E-01)
 number of electron     245.0000009 magnetization       1.0000005
 augmentation part       13.2923402 magnetization       0.5959536

 DIPCOR: dipole corrections for dipol
 direction  3 min pos     1,
 dipolmoment           0.000000     -0.000000      0.000387 electrons x Angstroem
 Tr[quadrupol]     -6700.927402

 energy correction for charged system         0.000000 eV
 dipol+quadrupol energy correction            0.000000 eV
 added-field ion interaction          0.000000 eV  (added to PSCEN)


 Free energy of the ion-electron system (eV)
  ---------------------------------------------------
  alpha Z        PSCENC =       101.90492843
  Ewald energy   TEWEN  =     40116.60714823
  -Hartree energ DENC   =    -48570.32259675
  -exchange      EXHF   =       558.16847996
  -V(xc)+E(xc)   XCENC  =       614.76564316
  PAW double counting   =     27271.61037731   -27299.62337911
  entropy T*S    EENTRO =        -0.00000001
  eigenvalues    EBANDS =     -3247.58920427
  atomic energy  EATOM  =      9840.58036623
  ---------------------------------------------------
  free energy    TOTEN  =      -613.89823683 eV

  energy without entropy =     -613.89823682  energy(sigma->0) =     -613.89823682
  exchange ACFDT corr.  =        -0.00000000  see jH, gK, PRB 81, 115126


--------------------------------------------------------------------------------------------------------




--------------------------------------- Iteration      1(  15)  ---------------------------------------


    POTLOK:  cpu time    1.1012: real time    1.1043
    SETDIJ:  cpu time    1.1914: real time    1.1945
    TRIAL :  cpu time  193.3076: real time  193.9334
    CORREC:  cpu time    0.0009: real time    0.0009
    CHARGE:  cpu time    0.9132: real time    0.9156
    --------------------------------------------
      LOOP:  cpu time  196.5163: real time  197.1550

 eigenvalue-minimisations  :     0
 total energy-change (2. order) :-0.1824981E-01  (-0.1631212E-01)
 number of electron     245.0000009 magnetization       1.0000005
 augmentation part       13.2935755 magnetization       0.5917062

 DIPCOR: dipole corrections for dipol
 direction  3 min pos     1,
 dipolmoment           0.000000     -0.000000      0.000408 electrons x Angstroem
 Tr[quadrupol]     -6700.929100

 energy correction for charged system         0.000000 eV
 dipol+quadrupol energy correction            0.000000 eV
 added-field ion interaction          0.000000 eV  (added to PSCEN)


 Free energy of the ion-electron system (eV)
  ---------------------------------------------------
  alpha Z        PSCENC =       101.90492843
  Ewald energy   TEWEN  =     40116.60714823
  -Hartree energ DENC   =    -48570.36760291
  -exchange      EXHF   =       558.23427199
  -V(xc)+E(xc)   XCENC  =       614.81062653
  PAW double counting   =     27276.58802561   -27304.64141352
  entropy T*S    EENTRO =        -0.00000001
  eigenvalues    EBANDS =     -3247.63283723
  atomic energy  EATOM  =      9840.58036623
  ---------------------------------------------------
  free energy    TOTEN  =      -613.91648664 eV

  energy without entropy =     -613.91648663  energy(sigma->0) =     -613.91648663
  exchange ACFDT corr.  =        -0.00000000  see jH, gK, PRB 81, 115126


--------------------------------------------------------------------------------------------------------




--------------------------------------- Iteration      1(  16)  ---------------------------------------


    POTLOK:  cpu time    1.1086: real time    1.1129
    SETDIJ:  cpu time    1.2099: real time    1.2131
    TRIAL :  cpu time  193.1840: real time  193.8663
    CORREC:  cpu time    0.0009: real time    0.0009
    CHARGE:  cpu time    0.9127: real time    0.9177
    --------------------------------------------
      LOOP:  cpu time  196.4181: real time  197.1170

 eigenvalue-minimisations  :     0
 total energy-change (2. order) :-0.1550412E-01  (-0.1386250E-01)
 number of electron     245.0000009 magnetization       1.0000005
 augmentation part       13.2946281 magnetization       0.5877208

 DIPCOR: dipole corrections for dipol
 direction  3 min pos     1,
 dipolmoment           0.000000     -0.000000      0.000427 electrons x Angstroem
 Tr[quadrupol]     -6700.930596

 energy correction for charged system         0.000000 eV
 dipol+quadrupol energy correction            0.000000 eV
 added-field ion interaction          0.000000 eV  (added to PSCEN)


 Free energy of the ion-electron system (eV)
  ---------------------------------------------------
  alpha Z        PSCENC =       101.90492843
  Ewald energy   TEWEN  =     40116.60714823
  -Hartree energ DENC   =    -48570.39799877
  -exchange      EXHF   =       558.29371811
  -V(xc)+E(xc)   XCENC  =       614.85160673
  PAW double counting   =     27281.46734444   -27309.55525017
  entropy T*S    EENTRO =        -0.00000001
  eigenvalues    EBANDS =     -3247.68385398
  atomic energy  EATOM  =      9840.58036623
  ---------------------------------------------------
  free energy    TOTEN  =      -613.93199076 eV

  energy without entropy =     -613.93199076  energy(sigma->0) =     -613.93199076
  exchange ACFDT corr.  =        -0.00000000  see jH, gK, PRB 81, 115126


--------------------------------------------------------------------------------------------------------




--------------------------------------- Iteration      1(  17)  ---------------------------------------


    POTLOK:  cpu time    1.8535: real time    1.9044
    SETDIJ:  cpu time    1.2017: real time    1.2049
    TRIAL :  cpu time  193.2456: real time  193.8785
    CORREC:  cpu time    0.0009: real time    0.0009
    CHARGE:  cpu time    0.9086: real time    0.9111
    --------------------------------------------
      LOOP:  cpu time  197.2119: real time  197.9059

 eigenvalue-minimisations  :     0
 total energy-change (2. order) :-0.1319919E-01  (-0.1180847E-01)
 number of electron     245.0000009 magnetization       1.0000005
 augmentation part       13.2955782 magnetization       0.5840031

 DIPCOR: dipole corrections for dipol
 direction  3 min pos     1,
 dipolmoment           0.000000     -0.000000      0.000444 electrons x Angstroem
 Tr[quadrupol]     -6700.931841

 energy correction for charged system         0.000000 eV
 dipol+quadrupol energy correction            0.000000 eV
 added-field ion interaction          0.000000 eV  (added to PSCEN)


 Free energy of the ion-electron system (eV)
  ---------------------------------------------------
  alpha Z        PSCENC =       101.90492843
  Ewald energy   TEWEN  =     40116.60714823
  -Hartree energ DENC   =    -48570.41932923
  -exchange      EXHF   =       558.34746023
  -V(xc)+E(xc)   XCENC  =       614.88903500
  PAW double counting   =     27285.96506323   -27314.08437089
  entropy T*S    EENTRO =        -0.00000001
  eigenvalues    EBANDS =     -3247.73549117
  atomic energy  EATOM  =      9840.58036623
  ---------------------------------------------------
  free energy    TOTEN  =      -613.94518995 eV

  energy without entropy =     -613.94518995  energy(sigma->0) =     -613.94518995
  exchange ACFDT corr.  =        -0.00000000  see jH, gK, PRB 81, 115126


--------------------------------------------------------------------------------------------------------




[...]
  augment    44.47606    45.54436    55.96778    -0.00131     0.00280    -0.00095
  Kinetic  3633.32818  3684.02142  4208.32866     0.09838     0.03895    -0.00063
  Fock     -317.97994  -319.59024  -306.09069     0.00391     0.00785     0.00137
  -------------------------------------------------------------------------------------
  Total     -42.05622   -40.86855    -0.41785     0.11066     0.00788    -0.00010
  in kB     -21.20993   -20.61096    -0.21073     0.05581     0.00398    -0.00005
  external pressure =      -14.01 kB  Pullay stress =        0.00 kB


 VOLUME and BASIS-vectors are now :
 -----------------------------------------------------------------------------
  energy-cutoff  :      500.00
  volume of cell :     3176.89
      direct lattice vectors                 reciprocal lattice vectors
    12.695700000  0.000000000  0.000000000     0.078766827  0.000007011 -0.000016495
    -0.001110155 12.471999951  0.000000000     0.000000000  0.080179603  0.000021829
     0.004202111 -0.005462370 20.063598816     0.000000000  0.000000000  0.049841507

  length of vectors
    12.695700000 12.472000000 20.063600000     0.078766829  0.080179606  0.049841507


 FORCES acting on ions:
    Electron-Ion                     Ewald-Force                    Non-Local-Force
 -----------------------------------------------------------------------------------------------
   0.795E+01 0.689E+00 -.192E+00   -.819E+01 -.702E+00 0.193E+00   0.359E+00 0.495E-02 -.758E-03
   -.190E+00 -.157E+01 -.173E+00   0.203E+00 0.160E+01 0.173E+00   0.546E-01 -.741E-01 -.494E-03
   0.112E+02 0.598E+00 -.599E-01   -.114E+02 -.596E+00 0.593E-01   0.129E+00 -.199E-02 0.121E-02
   0.180E+02 0.635E+01 -.250E+00   -.185E+02 -.661E+01 0.249E+00   0.416E+00 0.210E+00 0.430E-03
   0.186E+02 -.851E+00 -.197E+00   -.191E+02 0.747E+00 0.198E+00   0.490E+00 0.130E+00 -.215E-02
   0.472E+01 -.262E+01 -.331E+00   -.473E+01 0.293E+01 0.331E+00   0.163E+00 -.241E+00 -.596E-04
   0.882E+01 0.477E+00 -.265E+00   -.926E+01 -.156E+00 0.264E+00   0.363E+00 -.246E+00 -.453E-03
   0.464E+02 -.251E+01 0.126E+00   -.501E+02 0.301E+01 -.121E+00   0.371E+01 -.448E+00 -.530E-02
   0.243E+02 0.475E+00 0.694E-02   -.247E+02 -.238E+00 -.577E-02   0.469E+00 -.104E+00 -.237E-02
   0.602E+01 -.845E+00 -.355E+00   -.608E+01 0.858E+00 0.353E+00   0.194E+00 -.958E-02 0.105E-02
   0.779E+01 -.309E+01 -.312E+00   -.819E+01 0.323E+01 0.313E+00   0.151E+00 -.153E+00 -.189E-02
   0.613E+02 -.523E+01 0.215E+00   -.656E+02 0.524E+01 -.197E+00   0.391E+01 0.188E-01 -.160E-01
   0.200E+02 -.197E+01 -.276E+00   -.203E+02 0.174E+01 0.278E+00   0.430E+00 0.107E+00 -.552E-02
   0.418E+01 0.279E+01 -.278E+00   -.419E+01 -.312E+01 0.278E+00   0.165E+00 0.253E+00 -.516E-04
   0.682E+01 0.157E+01 -.381E+00   -.719E+01 -.170E+01 0.381E+00   0.112E+00 0.147E+00 -.160E-02
   0.415E+02 0.498E+01 -.271E+00   -.454E+02 -.550E+01 0.271E+00   0.378E+01 0.475E+00 -.161E-02
   0.166E+02 0.181E+01 -.227E+00   -.170E+02 -.172E+01 0.228E+00   0.498E+00 -.117E+00 -.880E-03
   -.621E+00 0.230E+01 -.182E-02   0.632E+00 -.232E+01 0.251E-02   0.579E-01 0.668E-01 0.553E-03
   0.846E+01 0.336E+00 -.113E+00   -.891E+01 -.661E+00 0.112E+00   0.382E+00 0.251E+00 0.147E-02
   0.170E+02 -.353E+01 -.206E+00   -.175E+02 0.378E+01 0.205E+00   0.416E+00 -.201E+00 0.200E-02
   -.691E+01 0.184E+01 -.522E+00   0.654E+01 -.184E+01 0.522E+00   0.308E+00 -.786E-02 -.815E-03
   0.975E+01 0.142E+02 -.384E+00   -.984E+01 -.148E+02 0.386E+00   0.165E+00 0.601E+00 -.314E-02
   0.691E+01 0.182E+01 -.519E+00   -.654E+01 -.181E+01 0.519E+00   -.307E+00 -.803E-02 -.778E-03
   -.975E+01 0.142E+02 -.417E+00   0.983E+01 -.148E+02 0.418E+00   -.165E+00 0.602E+00 -.325E-02
   -.108E+01 0.392E+02 -.341E-01   -.349E+00 -.423E+02 0.410E-01   0.135E+01 0.297E+01 -.716E-02
   0.108E+01 0.392E+02 0.705E-03   0.345E+00 -.423E+02 0.640E-02   -.135E+01 0.297E+01 -.709E-02
   0.214E+01 -.302E+02 -.415E+00   -.358E+01 0.334E+02 0.420E+00   0.134E+01 -.305E+01 -.468E-02
   0.895E+01 -.107E+02 -.427E+00   -.903E+01 0.113E+02 0.428E+00   0.163E+00 -.616E+00 -.812E-03
   -.214E+01 -.302E+02 -.422E+00   0.358E+01 0.334E+02 0.427E+00   -.134E+01 -.305E+01 -.468E-02
   -.895E+01 -.108E+02 -.409E+00   0.903E+01 0.114E+02 0.410E+00   -.162E+00 -.615E+00 -.506E-03
   -.112E+02 0.592E+00 -.579E-01   0.114E+02 -.591E+00 0.574E-01   -.128E+00 -.149E-02 0.116E-02
   -.180E+02 0.637E+01 -.286E+00   0.185E+02 -.663E+01 0.284E+00   -.416E+00 0.211E+00 0.131E-03
   -.795E+01 0.685E+00 -.190E+00   0.820E+01 -.699E+00 0.191E+00   -.358E+00 0.646E-02 -.549E-03
   0.186E+00 -.155E+01 -.173E+00   -.199E+00 0.158E+01 0.174E+00   -.547E-01 -.723E-01 -.471E-03
   -.882E+01 0.477E+00 -.272E+00   0.927E+01 -.156E+00 0.271E+00   -.366E+00 -.245E+00 -.199E-03
   -.464E+02 -.247E+01 0.592E-01   0.501E+02 0.297E+01 -.545E-01   -.371E+01 -.446E+00 -.549E-02
   -.186E+02 -.859E+00 -.237E+00   0.191E+02 0.755E+00 0.237E+00   -.493E+00 0.132E+00 -.205E-02
   -.473E+01 -.264E+01 -.335E+00   0.473E+01 0.295E+01 0.335E+00   -.164E+00 -.241E+00 0.156E-04
   -.779E+01 -.306E+01 -.327E+00   0.820E+01 0.320E+01 0.328E+00   -.152E+00 -.152E+00 -.172E-02
   -.613E+02 -.516E+01 0.165E+00   0.656E+02 0.518E+01 -.148E+00   -.391E+01 0.219E-01 -.159E-01
   -.243E+02 0.420E+00 -.419E-01   0.247E+02 -.184E+00 0.430E-01   -.471E+00 -.102E+00 -.234E-02
   -.603E+01 -.890E+00 -.362E+00   0.608E+01 0.903E+00 0.360E+00   -.195E+00 -.960E-02 0.105E-02
   -.682E+01 0.161E+01 -.392E+00   0.719E+01 -.173E+01 0.392E+00   -.111E+00 0.149E+00 -.154E-02
   -.415E+02 0.503E+01 -.274E+00   0.454E+02 -.554E+01 0.273E+00   -.378E+01 0.477E+00 -.176E-02
   -.200E+02 -.205E+01 -.301E+00   0.203E+02 0.180E+01 0.303E+00   -.429E+00 0.109E+00 -.564E-02
   -.418E+01 0.276E+01 -.282E+00   0.419E+01 -.309E+01 0.282E+00   -.163E+00 0.253E+00 -.152E-03
   -.846E+01 0.340E+00 -.110E+00   0.891E+01 -.665E+00 0.109E+00   -.380E+00 0.252E+00 0.137E-02
   -.170E+02 -.351E+01 -.188E+00   0.175E+02 0.376E+01 0.187E+00   -.416E+00 -.200E+00 0.209E-02
   -.166E+02 0.178E+01 -.213E+00   0.170E+02 -.170E+01 0.214E+00   -.495E+00 -.115E+00 -.710E-03
   0.624E+00 0.231E+01 0.262E-02   -.635E+00 -.233E+01 -.200E-02   -.572E-01 0.682E-01 0.646E-03
   0.236E+02 -.217E+02 0.883E+00   -.147E+02 0.376E+02 -.941E+00   -.871E+01 -.152E+02 0.589E-01
   -.236E+02 -.218E+02 0.792E+00   0.146E+02 0.377E+02 -.849E+00   0.871E+01 -.152E+02 0.570E-01
   0.419E+02 -.167E+02 0.241E+01   -.305E+02 0.166E+02 -.252E+01   -.106E+02 -.158E+00 0.102E+00
   -.419E+02 -.167E+02 0.232E+01   0.305E+02 0.167E+02 -.243E+01   0.106E+02 -.165E+00 0.100E+00
   0.678E+01 0.354E+02 -.264E+00   0.229E+01 -.515E+02 0.252E+00   -.879E+01 0.153E+02 0.114E-01
   -.682E+01 0.353E+02 -.256E+00   -.224E+01 -.514E+02 0.244E+00   0.879E+01 0.153E+02 0.116E-01
   -.207E-01 0.498E+02 0.323E+01   0.193E-01 -.549E+02 -.321E+01   0.288E-02 0.256E+01 -.208E-01
   0.359E-01 -.741E+02 0.155E+01   -.344E-01 0.780E+02 -.153E+01   -.316E-02 -.984E+00 -.186E-01
 -----------------------------------------------------------------------------------------------
   0.184E-02 -.185E+01 -.229E+00   -.378E-12 0.568E-13 0.200E-14   -.379E-03 0.142E+01 0.204E+00
 
 
 POSITION                                       TOTAL-FORCE (eV/Angst)
 -----------------------------------------------------------------------------------
      2.80775     12.46906     10.03210         0.130290     -0.008422      0.000171
      0.70363      1.25484     10.03209         0.062868     -0.050723     -0.000000
      1.39160     12.46866     10.03187        -0.123832     -0.000073      0.000720
      3.51465      1.23665     10.03186        -0.001914     -0.029985     -0.001265
      2.84743      2.49569     10.03132         0.052788      0.026892     -0.001537
      0.70983      3.75051     10.03225         0.167035      0.053926     -0.000548
      1.41645      2.50550     10.03206        -0.060400      0.065002     -0.000902
      3.60838      3.72202     10.02938         0.156781      0.026398     -0.000484
      2.88571      4.97101     10.02985         0.158806      0.132779     -0.001316
      0.71634      6.23114     10.03230         0.153279      0.002945     -0.000780
      1.44261      4.98487     10.03178        -0.250066     -0.028651     -0.001086
      3.60174      6.22498     10.02821        -0.168052      0.032984      0.000421
      2.88904      7.48824     10.03103         0.152026     -0.129989     -0.003139
      0.70947      8.71144     10.03235         0.169583     -0.061441     -0.000073
      1.44461      7.47653     10.03222        -0.255867      0.032239     -0.001545
      3.60283      8.74370     10.03144         0.150288     -0.010038     -0.002508
      2.84325      9.96975     10.03204         0.059508     -0.036281     -0.000155
      0.70207     11.21033     10.03174         0.064655      0.049958      0.001282
      1.41323      9.95878     10.03198        -0.045884     -0.062665      0.000780
      3.51253     11.22981     10.03223        -0.001394      0.038489      0.000933
      7.04258     -0.00061     10.03285        -0.052641     -0.003932     -0.000770
      4.92945      1.22803     10.03186         0.088751      0.022832     -0.002077
      5.63727     -0.00053     10.03283         0.053213     -0.003843     -0.000668
      7.75039      1.22790     10.03199        -0.088573      0.023731     -0.002227
      7.05007      2.44802     10.02985        -0.010208      0.040837     -0.000674
      5.62975      2.44811     10.02973         0.008107      0.039972     -0.000383
      7.05004     10.02358     10.03211        -0.034658     -0.027513     -0.000491
      4.92785     11.24311     10.03267         0.088865     -0.034944      0.000089
      5.62772     10.02365     10.03213         0.036805     -0.027714     -0.000471
      7.74984     11.24299     10.03265        -0.088265     -0.033869      0.000460
     11.28603     12.46850     10.03189         0.124213     -0.000114      0.000750
      9.16519      1.23640     10.03202         0.001786     -0.029744     -0.001515
      9.86989     12.46879     10.03214        -0.129495     -0.007308      0.000310
     11.97621      1.25470     10.03211        -0.062841     -0.048806      0.000047
     11.26338      2.50532     10.03214         0.058528      0.065419     -0.000700
      9.07132      3.72165     10.02966        -0.159236      0.028857     -0.001020
      9.83240      2.49538     10.03152        -0.054918      0.028067     -0.001582
     11.96979      3.75041     10.03230        -0.168517      0.053947     -0.000430
     11.23672      4.98466     10.03189         0.248524     -0.027465     -0.000964
      9.07717      6.22451     10.02844         0.167755      0.035776      0.000128
      9.79363      4.97069     10.03009        -0.160177      0.133926     -0.001390
     11.96254      6.23107     10.03234        -0.153767      0.002228     -0.000736
     11.23380      7.47630     10.03229         0.256510      0.033989     -0.001510
      9.07517      8.74333     10.03148        -0.148615     -0.007285     -0.002566
      9.78936      7.48793     10.03116        -0.151112     -0.129224     -0.003230
     11.96855      8.71134     10.03237        -0.167508     -0.061607     -0.000160
     11.26455      9.95859     10.03198         0.047410     -0.061773      0.000814
      9.16516     11.22954     10.03220         0.001960      0.039034      0.001106
      9.83451      9.96946     10.03203        -0.057180     -0.035042     -0.000018
     11.97562     11.21020     10.03174        -0.064296      0.051496      0.001315
      5.00118      3.67709     10.02731        -0.531587     -0.585934      0.005455
      7.67855      3.67695     10.02756         0.529447     -0.585365      0.004995
      4.93840      6.21884     10.02358        -0.108700     -0.254344      0.003837
      7.74052      6.21868     10.02381         0.107357     -0.254328      0.003710
      4.99387      8.79736     10.03086        -0.472513      0.491740     -0.000162
      7.68407      8.79726     10.03086         0.474975      0.491607     -0.000109
      6.33955      5.07097     10.02349         0.001251     -1.512734      0.005620
      6.33940      7.36539     10.02597        -0.001146      2.106084      0.006253
 -----------------------------------------------------------------------------------
    total drift:                                0.001470     -0.017642      0.000059


--------------------------------------------------------------------------------------------------------



  FREE ENERGIE OF THE ION-ELECTRON SYSTEM (eV)
  ---------------------------------------------------
  free  energy   TOTEN  =      -614.02512759 eV

  energy  without entropy=     -614.02512758  energy(sigma->0) =     -614.02512759
 


--------------------------------------------------------------------------------------------------------


    POTLOK:  cpu time    2.3102: real time    2.3167


--------------------------------------------------------------------------------------------------------


 stress matrix after NEB project (eV)
    -42.05622      0.11066     -0.00010
      0.11066    -40.86855      0.00776
     -0.00010      0.00788     -0.41785
  FORCES: max atom, RMS     2.106094    0.415233
  FORCE total and by dimension    3.162318    2.106084
  Stress total and by dimension   58.644374   42.056217
 writing wavefunctions
     LOOP+:  cpu time10261.4973: real time10300.7339
    4ORBIT:  cpu time    0.0000: real time    0.0000
 


 total charge     
 
# of ion       s       p       d       tot
------------------------------------------
    1        0.867   1.787   0.000   2.654
    2        0.864   1.762   0.000   2.625
    3        0.866   1.768   0.000   2.634
    4        0.870   1.778   0.000   2.648
    5        0.863   1.766   0.000   2.629
    6        0.862   1.760   0.000   2.621
    7        0.863   1.755   0.000   2.618
    8        0.852   1.704   0.000   2.556
    9        0.855   1.759   0.000   2.614
   10        0.855   1.740   0.000   2.595
   11        0.859   1.741   0.000   2.600
   12        0.861   1.725   0.000   2.586
   13        0.853   1.754   0.000   2.607
   14        0.861   1.758   0.000   2.619
   15        0.858   1.739   0.000   2.597
   16        0.852   1.705   0.000   2.557
   17        0.863   1.766   0.000   2.629
   18        0.864   1.762   0.000   2.626
   19        0.863   1.755   0.000   2.619
   20        0.869   1.777   0.000   2.647
   21        0.871   1.805   0.000   2.676
   22        0.874   1.803   0.000   2.677
   23        0.871   1.805   0.000   2.676
   24        0.874   1.803   0.000   2.677
   25        0.868   1.771   0.000   2.639
   26        0.868   1.771   0.000   2.639
   27        0.867   1.771   0.000   2.638
   28        0.874   1.803   0.000   2.677
   29        0.867   1.771   0.000   2.638
   30        0.874   1.803   0.000   2.677
   31        0.866   1.768   0.000   2.634
   32        0.870   1.778   0.000   2.648
   33        0.867   1.787   0.000   2.654
   34        0.864   1.762   0.000   2.625
   35        0.863   1.755   0.000   2.618
   36        0.852   1.704   0.000   2.556
   37        0.863   1.766   0.000   2.629
   38        0.862   1.760   0.000   2.621
   39        0.859   1.741   0.000   2.600
   40        0.862   1.725   0.000   2.586
   41        0.855   1.759   0.000   2.614
   42        0.855   1.740   0.000   2.595
   43        0.858   1.739   0.000   2.597
   44        0.852   1.704   0.000   2.557
   45        0.853   1.754   0.000   2.607
   46        0.861   1.758   0.000   2.619
   47        0.863   1.755   0.000   2.619
   48        0.869   1.777   0.000   2.647
   49        0.863   1.766   0.000   2.629
   50        0.864   1.762   0.000   2.626
   51        1.227   2.664   0.000   3.890
   52        1.227   2.664   0.000   3.890
   53        1.248   2.635   0.000   3.883
   54        1.248   2.635   0.000   3.883
   55        1.227   2.672   0.000   3.899
   56        1.227   2.672   0.000   3.899
   57        0.514   0.758   6.291   7.563
   58        0.384   0.573   5.030   5.988
--------------------------------------------------
tot         51.451 105.299  11.321 168.071
 


 magnetization (x)
 
# of ion       s       p       d       tot
------------------------------------------
    1        0.000   0.000   0.000   0.000
    2       -0.000  -0.001   0.000  -0.001
    3        0.000   0.000   0.000   0.000
    4        0.000   0.008   0.000   0.008
    5        0.000   0.004   0.000   0.004
    6        0.000   0.004   0.000   0.004
    7       -0.000  -0.004   0.000  -0.004
    8        0.000   0.008   0.000   0.008
    9       -0.002  -0.004   0.000  -0.005
   10       -0.000  -0.000   0.000  -0.000
   11       -0.001  -0.005   0.000  -0.005
   12        0.001   0.003   0.000   0.004
   13        0.000  -0.001   0.000  -0.000
   14       -0.000  -0.004   0.000  -0.004
   15        0.001   0.005   0.000   0.006
   16        0.000  -0.007   0.000  -0.007
   17       -0.000  -0.004   0.000  -0.005
   18        0.000   0.001   0.000   0.001
   19        0.000   0.004   0.000   0.004
   20       -0.000  -0.007   0.000  -0.008
   21        0.000   0.000   0.000   0.000
   22       -0.000  -0.003   0.000  -0.003
   23        0.000   0.000   0.000   0.000
   24       -0.000  -0.003   0.000  -0.003
   25        0.001   0.012   0.000   0.013
   26        0.001   0.012   0.000   0.013
   27       -0.000  -0.011   0.000  -0.012
   28        0.000   0.003   0.000   0.003
   29       -0.000  -0.011   0.000  -0.012
   30        0.000   0.003   0.000   0.003
   31        0.000   0.000   0.000   0.000
   32        0.000   0.008   0.000   0.008
   33        0.000   0.000   0.000   0.000
   34       -0.000  -0.001   0.000  -0.001
   35       -0.000  -0.004   0.000  -0.004
   36        0.000   0.008   0.000   0.008
   37        0.000   0.004   0.000   0.004
   38        0.000   0.004   0.000   0.005
   39       -0.001  -0.005   0.000  -0.005
   40        0.001   0.003   0.000   0.004
   41       -0.002  -0.003   0.000  -0.005
   42       -0.000  -0.000   0.000  -0.000
   43        0.001   0.005   0.000   0.006
   44        0.000  -0.007   0.000  -0.007
   45        0.000  -0.001   0.000  -0.000
   46       -0.000  -0.004   0.000  -0.004
   47        0.000   0.004   0.000   0.004
   48       -0.000  -0.007   0.000  -0.008
   49       -0.000  -0.004   0.000  -0.004
   50        0.000   0.001   0.000   0.001
   51        0.006   0.063   0.000   0.069
   52        0.006   0.063   0.000   0.069
   53       -0.004  -0.056   0.000  -0.060
   54       -0.004  -0.056   0.000  -0.060
   55       -0.009  -0.070   0.000  -0.079
   56       -0.009  -0.070   0.000  -0.079
   57       -0.027  -0.027  -2.195  -2.249
   58        0.059   0.038   3.139   3.236
--------------------------------------------------
tot          0.018  -0.109   0.944   0.853
 

 total amount of memory used by VASP MPI-rank0   154839. kBytes
=======================================================================

   base      :      30000. kBytes
   nonl-proj :       4253. kBytes
   fftplans  :      11851. kBytes
   grid      :      31266. kBytes
   one-center:         62. kBytes
   HF        :         23. kBytes
   nonlr-proj:      15356. kBytes
   wavefun   :      62028. kBytes
 
  
  
 General timing and accounting informations for this job:
 ========================================================
  
                  Total CPU time used (sec):    10303.390
                            User time (sec):    10274.964
                          System time (sec):       28.426
                         Elapsed time (sec):    10349.416
  
                   Maximum memory used (kb):      397716.
                   Average memory used (kb):           0.
  
                          Minor page faults:       778061
                          Major page faults:          192
                 Voluntary context switches:       153191
