 vasp.5.4.4.18Apr17-6-g9f103f2a35 (build Feb 25 2019 10:51:38) complex          
  
 executed on             LinuxIFC date 2021.07.23  15:22:48
 running on   32 total cores
 distrk:  each k-point on   32 cores,    1 groups
 distr:  one band on NCORES_PER_BAND=  32 cores,    1 groups


--------------------------------------------------------------------------------------------------------


 INCAR:
 POTCAR:    PAW_PBE C 08Apr2002                   
 POTCAR:    PAW_PBE N 08Apr2002                   
 POTCAR:    PAW_PBE Fe 06Sep2000                  
 POTCAR:    PAW_PBE Ti 08Apr2002                  

 ----------------------------------------------------------------------------- 
|                                                                             |
|           W    W    AA    RRRRR   N    N  II  N    N   GGGG   !!!           |
|           W    W   A  A   R    R  NN   N  II  NN   N  G    G  !!!           |
|           W    W  A    A  R    R  N N  N  II  N N  N  G       !!!           |
|           W WW W  AAAAAA  RRRRR   N  N N  II  N  N N  G  GGG   !            |
|           WW  WW  A    A  R   R   N   NN  II  N   NN  G    G                |
|           W    W  A    A  R    R  N    N  II  N    N   GGGG   !!!           |
|                                                                             |
|      For optimal performance we recommend to set                            |
|        NCORE= 4 - approx SQRT( number of cores)                             |
|      NCORE specifies how many cores store one orbital (NPAR=cpu/NCORE).     |
|      This setting can  greatly improve the performance of VASP for DFT.     |
|      The default,   NCORE=1            might be grossly inefficient         |
|      on modern multi-core architectures or massively parallel machines.     |
|      Do your own testing !!!!                                               |
|      Unfortunately you need to use the default for GW and RPA calculations. |
|      (for HF NCORE is supported but not extensively tested yet)             |
|                                                                             |
 ----------------------------------------------------------------------------- 

 POTCAR:    PAW_PBE C 08Apr2002                   
   VRHFIN =C: s2p2                                                              
   LEXCH  = PE                                                                  
   EATOM  =   147.1560 eV,   10.8157 Ry                                         
                                                                                
   TITEL  = PAW_PBE C 08Apr2002                                                 
   LULTRA =        F    use ultrasoft PP ?                                      
   IUNSCR =        1    unscreen: 0-lin 1-nonlin 2-no                           
   RPACOR =    1.200    partial core radius                                     
   POMASS =   12.011; ZVAL   =    4.000    mass and valenz                      
   RCORE  =    1.500    outmost cutoff radius                                   
   RWIGS  =    1.630; RWIGS  =    0.863    wigner-seitz radius (au A)           
   ENMAX  =  400.000; ENMIN  =  300.000 eV                                      
   ICORE  =        2    local potential                                         
   LCOR   =        T    correct aug charges                                     
   LPAW   =        T    paw PP                                                  
   EAUG   =  644.873                                                            
   DEXC   =    0.000                                                            
   RMAX   =    1.529    core radius for proj-oper                               
   RAUG   =    1.300    factor for augmentation sphere                          
   RDEP   =    1.501    radius for radial grids                                 
   RDEPT  =    1.300    core radius for aug-charge                              
                                                                                
   Atomic configuration                                                         
    4 entries                                                                   
     n  l   j            E        occ.                                          
     1  0  0.50      -273.3789   2.0000                                         
     2  0  0.50       -13.7508   2.0000                                         
     2  1  0.50        -5.2854   2.0000                                         
     3  2  1.50        -5.4423   0.0000                                         
   Description                                                                  
     l       E           TYP  RCUT    TYP  RCUT                                 
     0    -13.7508458     23  1.200                                             
     0     -8.2022199     23  1.200                                             
     1     -5.2854383     23  1.500                                             
     1     34.0145650     23  1.500                                             
     2     -5.4423304      7  1.500                                             
  local pseudopotential read in
  partial core-charges read in
  partial kinetic energy density read in
  atomic valenz-charges read in
  non local Contribution for L=           0  read in
    real space projection operators read in
  non local Contribution for L=           0  read in
    real space projection operators read in
  non local Contribution for L=           1  read in
    real space projection operators read in
  non local Contribution for L=           1  read in
    real space projection operators read in
    PAW grid and wavefunctions read in
 
   number of l-projection  operators is LMAX  =           4
   number of lm-projection operators is LMMAX =           8
 
 POTCAR:    PAW_PBE N 08Apr2002                   
   VRHFIN =N: s2p3                                                              
   LEXCH  = PE                                                                  
   EATOM  =   264.5486 eV,   19.4438 Ry                                         
                                                                                
   TITEL  = PAW_PBE N 08Apr2002                                                 
   LULTRA =        F    use ultrasoft PP ?                                      
   IUNSCR =        1    unscreen: 0-lin 1-nonlin 2-no                           
   RPACOR =    1.200    partial core radius                                     
   POMASS =   14.001; ZVAL   =    5.000    mass and valenz                      
   RCORE  =    1.500    outmost cutoff radius                                   
   RWIGS  =    1.400; RWIGS  =    0.741    wigner-seitz radius (au A)           
   ENMAX  =  400.000; ENMIN  =  300.000 eV                                      
   ICORE  =        2    local potential                                         
   LCOR   =        T    correct aug charges                                     
   LPAW   =        T    paw PP                                                  
   EAUG   =  627.112                                                            
   DEXC   =    0.000                                                            
   RMAX   =    1.529    core radius for proj-oper                               
   RAUG   =    1.300    factor for augmentation sphere                          
   RDEP   =    1.514    radius for radial grids                                 
   RDEPT  =    1.338    core radius for aug-charge                              
                                                                                
   Atomic configuration                                                         
    4 entries                                                                   
     n  l   j            E        occ.                                          
     1  0  0.50      -384.7179   2.0000                                         
     2  0  0.50       -18.5828   2.0000                                         
     2  1  0.50        -7.0898   3.0000                                         
     3  2  1.50        -6.8029   0.0000                                         
   Description                                                                  
     l       E           TYP  RCUT    TYP  RCUT                                 
     0    -18.5828119     23  1.200                                             
     0    -13.5018863     23  1.200                                             
     1     -7.0897853     23  1.500                                             
     1      9.5240782     23  1.500                                             
     2     -6.8029130      7  1.500                                             
  local pseudopotential read in
  partial core-charges read in
  partial kinetic energy density read in
  atomic valenz-charges read in
  non local Contribution for L=           0  read in
    real space projection operators read in
  non local Contribution for L=           0  read in
    real space projection operators read in
  non local Contribution for L=           1  read in
    real space projection operators read in
  non local Contribution for L=           1  read in
    real space projection operators read in
    PAW grid and wavefunctions read in
 
   number of l-projection  operators is LMAX  =           4
   number of lm-projection operators is LMMAX =           8
 
 POTCAR:    PAW_PBE Fe 06Sep2000                  
   VRHFIN =Fe:  d7 s1                                                           
   LEXCH  = PE                                                                  
   EATOM  =   594.3153 eV,   43.6809 Ry                                         
                                                                                
   TITEL  = PAW_PBE Fe 06Sep2000                                                
   LULTRA =        F    use ultrasoft PP ?                                      
   IUNSCR =        1    unscreen: 0-lin 1-nonlin 2-no                           
   RPACOR =    2.000    partial core radius                                     
   POMASS =   55.847; ZVAL   =    8.000    mass and valenz                      
   RCORE  =    2.300    outmost cutoff radius                                   
   RWIGS  =    2.460; RWIGS  =    1.302    wigner-seitz radius (au A)           
   ENMAX  =  267.882; ENMIN  =  200.911 eV                                      
   RCLOC  =    1.701    cutoff for local pot                                    
   LCOR   =        T    correct aug charges                                     
   LPAW   =        T    paw PP                                                  
   EAUG   =  511.368                                                            
   DEXC   =    0.000                                                            
   RMAX   =    2.356    core radius for proj-oper                               
   RAUG   =    1.300    factor for augmentation sphere                          
   RDEP   =    2.442    radius for radial grids                                 
   RDEPT  =    1.890    core radius for aug-charge                              
                                                                                
   Atomic configuration                                                         
    9 entries                                                                   
     n  l   j            E        occ.                                          
     1  0  0.50     -6993.8440   2.0000                                         
     2  0  0.50      -814.6047   2.0000                                         
     2  1  1.50      -693.3689   6.0000                                         
     3  0  0.50       -89.4732   2.0000                                         
     3  1  1.50       -55.6373   6.0000                                         
     3  2  2.50        -3.8151   7.0000                                         
     4  0  0.50        -4.2551   1.0000                                         
     4  1  1.50        -3.4015   0.0000                                         
     4  3  2.50        -1.3606   0.0000                                         
   Description                                                                  
     l       E           TYP  RCUT    TYP  RCUT                                 
     2     -3.8151135     23  2.300                                             
     2     -5.1756961     23  2.300                                             
     0     -4.2550963     23  2.300                                             
     0      7.2035603     23  2.300                                             
     1     -2.7211652     23  2.300                                             
     1     18.4316424     23  2.300                                             
  local pseudopotential read in
  partial core-charges read in
  partial kinetic energy density read in
  atomic valenz-charges read in
  non local Contribution for L=           2  read in
    real space projection operators read in
  non local Contribution for L=           2  read in
    real space projection operators read in
  non local Contribution for L=           0  read in
    real space projection operators read in
  non local Contribution for L=           0  read in
    real space projection operators read in
  non local Contribution for L=           1  read in
    real space projection operators read in
  non local Contribution for L=           1  read in
    real space projection operators read in
    PAW grid and wavefunctions read in
 
   number of l-projection  operators is LMAX  =           6
   number of lm-projection operators is LMMAX =          18
 
 POTCAR:    PAW_PBE Ti 08Apr2002                  
   VRHFIN =Ti: d3 s1                                                            
   LEXCH  = PE                                                                  
   EATOM  =    94.7928 eV,    6.9671 Ry                                         
                                                                                
   TITEL  = PAW_PBE Ti 08Apr2002                                                
   LULTRA =        F    use ultrasoft PP ?                                      
   IUNSCR =        1    unscreen: 0-lin 1-nonlin 2-no                           
   RPACOR =    2.200    partial core radius                                     
   POMASS =   47.880; ZVAL   =    4.000    mass and valenz                      
   RCORE  =    2.800    outmost cutoff radius                                   
   RWIGS  =    2.500; RWIGS  =    1.323    wigner-seitz radius (au A)           
   ENMAX  =  178.330; ENMIN  =  133.747 eV                                      
   RCLOC  =    2.215    cutoff for local pot                                    
   LCOR   =        T    correct aug charges                                     
   LPAW   =        T    paw PP                                                  
   EAUG   =  328.883                                                            
   DEXC   =    0.000                                                            
   RMAX   =    2.868    core radius for proj-oper                               
   RAUG   =    1.300    factor for augmentation sphere                          
   RDEP   =    2.885    radius for radial grids                                 
   RDEPT  =    2.320    core radius for aug-charge                              
                                                                                
   Atomic configuration                                                         
    9 entries                                                                   
     n  l   j            E        occ.                                          
     1  0  0.50     -4865.3608   2.0000                                         
     2  0  0.50      -533.1367   2.0000                                         
     2  1  1.50      -440.5031   6.0000                                         
     3  0  0.50       -59.3186   2.0000                                         
     3  1  1.50       -35.7012   6.0000                                         
     3  2  2.50        -1.9157   3.0000                                         
     4  0  0.50        -3.7291   1.0000                                         
     4  1  1.50        -4.0817   0.0000                                         
     4  3  2.50        -1.3606   0.0000                                         
   Description                                                                  
     l       E           TYP  RCUT    TYP  RCUT                                 
     2     -1.9156924     23  2.800                                             
     2     -0.4062961     23  2.800                                             
     0     -3.7290832     23  2.800                                             
     0     20.4087390     23  2.800                                             
     1     -5.4423304     23  2.800                                             
  local pseudopotential read in
  partial core-charges read in
  partial kinetic energy density read in
  atomic valenz-charges read in
  non local Contribution for L=           2  read in
    real space projection operators read in
  non local Contribution for L=           2  read in
    real space projection operators read in
  non local Contribution for L=           0  read in
    real space projection operators read in
  non local Contribution for L=           0  read in
    real space projection operators read in
  non local Contribution for L=           1  read in
    real space projection operators read in
    PAW grid and wavefunctions read in
 
   number of l-projection  operators is LMAX  =           5
   number of lm-projection operators is LMMAX =          15
 

 ----------------------------------------------------------------------------- 
|                                                                             |
|  ADVICE TO THIS USER RUNNING 'VASP/VAMP'   (HEAR YOUR MASTER'S VOICE ...):  |
|                                                                             |
|      You have a (more or less) 'large supercell' and for larger cells       |
|      it might be more efficient to use real space projection opertators     |
|      So try LREAL= Auto  in the INCAR   file.                               |
|      Mind:          For very  accurate calculation you might also keep the  |
|      reciprocal projection scheme          (i.e. LREAL=.FALSE.)             |
|                                                                             |
 ----------------------------------------------------------------------------- 

  PAW_PBE C 08Apr2002                   :
 energy of atom  1       EATOM= -147.1560
 kinetic energy error for atom=    0.0076 (will be added to EATOM!!)
  PAW_PBE N 08Apr2002                   :
 energy of atom  2       EATOM= -264.5486
 kinetic energy error for atom=    0.0138 (will be added to EATOM!!)
  PAW_PBE Fe 06Sep2000                  :
 energy of atom  3       EATOM= -594.3153
 kinetic energy error for atom=    0.0026 (will be added to EATOM!!)
  PAW_PBE Ti 08Apr2002                  :
 energy of atom  4       EATOM=  -94.7928
 kinetic energy error for atom=    0.0002 (will be added to EATOM!!)
 
 
 POSCAR:  C  N Fe Ti                             
  positions in cartesian coordinates
  No initial velocities read in
 exchange correlation table for  LEXCH =        8
   RHO(1)=    0.500       N(1)  =     2000
   RHO(2)=  100.500       N(2)  =     4000

 VTST: version 3.2, (02/03/18)

 CHAIN: initializing optimizer
 
 OPT: Using VASP Conjugate-Gradient optimizer
 CHAIN: Read ICHAIN            0
 
 POSCAR:  C  N Fe Ti                             
  positions in cartesian coordinates
  No initial velocities read in
 


--------------------------------------------------------------------------------------------------------


 ion  position               nearest neighbor table
   1  0.221  0.998  0.502-   3 1.41   4 1.42  17 1.42
   2  0.054  0.098  0.500-  34 1.41   7 1.42   3 1.44
   3  0.110  0.998  0.501-   1 1.41  15 1.43   2 1.44
   4  0.276  0.096  0.503-  19 1.41   5 1.42   1 1.42
   5  0.220  0.194  0.503-   7 1.41   8 1.42   4 1.42
   6  0.055  0.298  0.500-  38 1.42   7 1.44  10 1.45
   7  0.108  0.197  0.501-   5 1.41   2 1.42   6 1.44
   8  0.275  0.292  0.505-  53 1.38  51 1.41   5 1.42  57 2.58
   9  0.063  0.499  0.498-  10 1.45  42 1.45  12 1.46
  10  0.116  0.396  0.500-  53 1.36   6 1.45   9 1.45
  11  0.059  0.698  0.497-  46 1.42  16 1.43  12 1.45
  12  0.120  0.600  0.497-  54 1.38  11 1.45   9 1.46
  13  0.279  0.701  0.497-  54 1.38  14 1.42  25 1.43
  14  0.224  0.800  0.499-  16 1.42  17 1.42  13 1.42
  15  0.056  0.899  0.499-  50 1.41   3 1.43  16 1.43
  16  0.112  0.799  0.499-  14 1.42  15 1.43  11 1.43
  17  0.278  0.899  0.501-  28 1.41  14 1.42   1 1.42
  18  0.555  0.999  0.500-  20 1.41  30 1.42  21 1.43
  19  0.387  0.097  0.503-   4 1.41  20 1.43  23 1.43
  20  0.444  0.999  0.501-  18 1.41  19 1.43  28 1.43
  21  0.610  0.099  0.502-  32 1.42  22 1.42  18 1.43
  22  0.554  0.197  0.506-  52 1.42  21 1.42  23 1.44
  23  0.441  0.197  0.506-  51 1.42  19 1.43  22 1.44
  24  0.556  0.606  0.494-  55 1.37  56 1.39  26 1.42
  25  0.392  0.701  0.496-  56 1.42  29 1.42  13 1.43
  26  0.612  0.704  0.495-  27 1.42  44 1.42  24 1.42
  27  0.557  0.802  0.496-  26 1.42  30 1.42  29 1.42
  28  0.389  0.900  0.500-  17 1.41  29 1.43  20 1.43
  29  0.445  0.800  0.498-  25 1.42  27 1.42  28 1.43
  30  0.611  0.901  0.498-  27 1.42  48 1.42  18 1.42
  31  0.889  1.000  0.499-  33 1.41  34 1.43  50 1.44
  32  0.722  0.100  0.500-  21 1.42  33 1.44  37 1.44
  33  0.777  0.000  0.499-  31 1.41  48 1.43  32 1.44
  34  0.942  0.100  0.499-   2 1.41  31 1.43  35 1.44
  35  0.887  0.201  0.500-  37 1.42  34 1.44  38 1.44
  36  0.717  0.301  0.504-  52 1.42  37 1.45  41 1.47
  37  0.775  0.201  0.501-  35 1.42  32 1.44  36 1.45
  38  0.943  0.301  0.500-   6 1.42  35 1.44  39 1.44
  39  0.887  0.402  0.499-  38 1.44  41 1.45  42 1.45
  40  0.719  0.504  0.498-  55 1.40  45 1.43  41 1.44
  41  0.773  0.403  0.501-  40 1.44  39 1.45  36 1.47
  42  0.948  0.499  0.498-  43 1.43  39 1.45   9 1.45
  43  0.892  0.599  0.496-  45 1.43  42 1.43  46 1.44
  44  0.724  0.701  0.495-  26 1.42  49 1.43  45 1.44
  45  0.779  0.601  0.496-  40 1.43  43 1.43  44 1.44
  46  0.947  0.699  0.497-  11 1.42  43 1.44  47 1.44
  47  0.891  0.799  0.497-  49 1.42  50 1.43  46 1.44
  48  0.723  0.900  0.497-  30 1.42  49 1.43  33 1.43
  49  0.779  0.800  0.496-  47 1.42  44 1.43  48 1.43
  50  0.945  0.899  0.498-  15 1.41  47 1.43  31 1.44
  51  0.386  0.297  0.508-   8 1.41  23 1.42  58 2.17  57 2.44
  52  0.605  0.297  0.510-  22 1.42  36 1.42  58 2.10
  53  0.223  0.388  0.502-  10 1.36   8 1.38  57 1.96
  54  0.228  0.604  0.496-  12 1.38  13 1.38  57 2.09
  55  0.609  0.511  0.498-  24 1.37  40 1.40  58 2.05
  56  0.447  0.603  0.493-  24 1.39  25 1.42  57 2.00
  57  0.342  0.484  0.488-  53 1.96  56 2.00  54 2.09  58 2.39  51 2.44   8 2.58
  58  0.498  0.416  0.541-  55 2.05  52 2.10  51 2.17  57 2.39
 
  LATTYP: Found a triclinic cell.
 ALAT       =    17.9072751799
 B/A-ratio  =     0.6994196422
 C/A-ratio  =     1.1155689405
 COS(alpha) =     0.0002792527
 COS(beta)  =     0.0021865768
 COS(gamma) =     0.7051508081
  
  Lattice vectors:
  
 A1 = ( -12.7989312856, -12.5242908908,   0.0000000000)
 A2 = (  -0.1012312856, -12.5242908908,   0.0000000000)
 A3 = (  -0.0560994705,  -0.0051253165,  19.9767205722)


Analysis of symmetry for initial positions (statically):
=====================================================================
 Subroutine PRICEL returns:
 Original cell was already a primitive cell.
 

 Routine SETGRP: Setting up the symmetry group for a 
 triclinic supercell.


 Subroutine GETGRP returns: Found  1 space group operations
 (whereof  1 operations were pure point group operations)
 out of a pool of  2 trial point group operations.


The static configuration has the point symmetry C_1 .


Analysis of symmetry for dynamics (positions and initial velocities):
=====================================================================
 Subroutine PRICEL returns:
 Original cell was already a primitive cell.
 

 Routine SETGRP: Setting up the symmetry group for a 
 triclinic supercell.


 Subroutine GETGRP returns: Found  1 space group operations
 (whereof  1 operations were pure point group operations)
 out of a pool of  2 trial point group operations.


The dynamic configuration has the point symmetry C_1 .


Analysis of structural, dynamic, and magnetic symmetry:
=====================================================================
 Subroutine PRICEL returns:
 Original cell was already a primitive cell.
 

 Routine SETGRP: Setting up the symmetry group for a 
 triclinic supercell.


 Subroutine GETGRP returns: Found  1 space group operations
 (whereof  1 operations were pure point group operations)
 out of a pool of  2 trial point group operations.


The magnetic configuration has the point symmetry C_1 .


 Subroutine INISYM returns: Found  1 space group operations
 (whereof  1 operations are pure point group operations),
 and found     1 'primitive' translations

 
 
 KPOINTS: KPOINTS created by Atomic Simulation Env

Automatic generation of k-mesh.
Space group operators:
 irot       det(A)        alpha          n_x          n_y          n_z        tau_x        tau_y        tau_z
    1     1.000000     0.000000     1.000000     0.000000     0.000000     0.000000     0.000000     0.000000
 
 Subroutine IBZKPT returns following result:
 ===========================================
 
 Found      2 irreducible k-points:
 
 Following reciprocal coordinates:
            Coordinates               Weight
  0.250000  0.250000  0.000000      2.000000
 -0.250000  0.250000 -0.000000      2.000000
 
 Following cartesian coordinates:
            Coordinates               Weight
  0.019689  0.019802  0.000060      2.000000
 -0.019689  0.020120 -0.000050      2.000000
 
 
 Subroutine IBZKPT_HF returns following result:
 ==============================================
 
 Found      4 k-points in 1st BZ
 the following      4 k-points will be used (e.g. in the exchange kernel)
 Following reciprocal coordinates:   # in IRBZ
  0.250000  0.250000  0.000000    0.25000000   1 t-inv F
 -0.250000  0.250000 -0.000000    0.25000000   2 t-inv F
 -0.250000 -0.250000 -0.000000    0.25000000   1 t-inv T
  0.250000 -0.250000  0.000000    0.25000000   2 t-inv T


--------------------------------------------------------------------------------------------------------




 Dimension of arrays:
   k-points           NKPTS =      2   k-points in BZ     NKDIM =      4   number of bands    NBANDS=    154
   number of dos      NEDOS =    301   number of ions     NIONS =     58
   non local maximal  LDIM  =      6   non local SUM 2l+1 LMDIM =     18
   total plane-waves  NPLWV = ******
   max r-space proj   IRMAX =      1   max aug-charges    IRDMAX=  30249
   dimension x,y,z NGX =    96 NGY =   96 NGZ =  150
   dimension x,y,z NGXF=   192 NGYF=  192 NGZF=  300
   support grid    NGXF=   192 NGYF=  192 NGZF=  300
   ions per type =              52   4   1   1
   NGX,Y,Z   is equivalent  to a cutoff of  12.57, 12.74, 12.48 a.u.
   NGXF,Y,Z  is equivalent  to a cutoff of  25.14, 25.49, 24.97 a.u.

 SYSTEM =  unknown system                          
 POSCAR =   C  N Fe Ti                             

 Startparameter for this run:
   NWRITE =      2    write-flag & timer
   PREC   = accura    normal or accurate (medium, high low for compatibility)
   ISTART =      1    job   : 0-new  1-cont  2-samecut
   ICHARG =      0    charge: 1-file 2-atom 10-const
   ISPIN  =      2    spin polarized calculation?
   LNONCOLLINEAR =      F non collinear calculations
   LSORBIT =      F    spin-orbit coupling
   INIWAV =      1    electr: 0-lowe 1-rand  2-diag
   LASPH  =      T    aspherical Exc in radial PAW
   METAGGA=      F    non-selfconsistent MetaGGA calc.

 Electronic Relaxation 1
   ENCUT  =  500.0 eV  36.75 Ry    6.06 a.u.  23.15 22.84 36.42*2*pi/ulx,y,z
   ENINI  =  500.0     initial cutoff
   ENAUG  =  644.9 eV  augmentation charge cutoff
   NELM   =    250;   NELMIN=  2; NELMDL=  0     # of ELM steps 
   EDIFF  = 0.1E-03   stopping-criterion for ELM
   LREAL  =      F    real-space projection
   NLSPLINE    = F    spline interpolate recip. space projectors
   LCOMPAT=      F    compatible to vasp.4.4
   GGA_COMPAT  = T    GGA compatible to vasp.4.4-vasp.4.6
   LMAXPAW     = -100 max onsite density
   LMAXMIX     =    2 max onsite mixed and CHGCAR
   VOSKOWN=      0    Vosko Wilk Nusair interpolation
   ROPT   =    0.00000   0.00000   0.00000   0.00000
 Ionic relaxation
   EDIFFG = -.3E-01   stopping-criterion for IOM
   NSW    =      0    number of steps for IOM
   NBLOCK =      1;   KBLOCK =      1    inner block; outer block 
   IBRION =     -1    ionic relax: 0-MD 1-quasi-New 2-CG
   NFREE  =      1    steps in history (QN), initial steepest desc. (CG)
   ISIF   =      2    stress and relaxation
   IWAVPR =     10    prediction:  0-non 1-charg 2-wave 3-comb
   ISYM   =      3    0-nonsym 1-usesym 2-fastsym
   LCORR  =      T    Harris-Foulkes like correction to forces

   POTIM  = 0.5000    time-step for ionic-motion
   TEIN   =    0.0    initial temperature
   TEBEG  =    0.0;   TEEND  =   0.0 temperature during run
   SMASS  =  -3.00    Nose mass-parameter (am)
   estimated Nose-frequenzy (Omega)   =  0.10E-29 period in steps =****** mass=  -0.368E-26a.u.
   SCALEE = 1.0000    scale energy and forces
   NPACO  =    256;   APACO  = 16.0  distance and # of slots for P.C.
   PSTRESS=    0.0 pullay stress

  Mass of Ions in am
   POMASS =  12.01 14.00 55.85 47.88
  Ionic Valenz
   ZVAL   =   4.00  5.00  8.00  4.00
  Atomic Wigner-Seitz radii
   RWIGS  =  -1.00 -1.00 -1.00 -1.00
  virtual crystal weights 
   VCA    =   1.00  1.00  1.00  1.00
   NELECT =     240.0000    total number of electrons
   NUPDOWN=      -1.0000    fix difference up-down

 DOS related values:
   EMIN   =  10.00;   EMAX   =-10.00  energy-range for DOS
   EFERMI =   0.00
   ISMEAR =     0;   SIGMA  =   0.10  broadening in eV -4-tet -1-fermi 0-gaus

 Electronic relaxation 2 (details)
   IALGO  =     53    algorithm
   LDIAG  =      T    sub-space diagonalisation (order eigenvalues)
   LSUBROT=      F    optimize rotation matrix (better conditioning)
   TURBO    =      0    0=normal 1=particle mesh
   IRESTART =      0    0=no restart 2=restart with 2 vectors
   NREBOOT  =      0    no. of reboots
   NMIN     =      0    reboot dimension
   EREF     =   0.00    reference energy to select bands
   IMIX   =      4    mixing-type and parameters
     AMIX     =   0.40;   BMIX     =  1.00
     AMIX_MAG =   1.60;   BMIX_MAG =  1.00
     AMIN     =   0.10
     WC   =   100.;   INIMIX=   1;  MIXPRE=   1;  MAXMIX= -45

 Intra band minimization:
   WEIMIN = 0.0000     energy-eigenvalue tresh-hold
   EBREAK =  0.16E-06  absolut break condition
   DEPER  =   0.30     relativ break condition  

   TIME   =   0.20     timestep for ELM

  volume/ion in A,a.u.               =      54.77       369.63
  Fermi-wavevector in a.u.,A,eV,Ry     =   0.692061  1.307806  6.516491  0.478949
  Thomas-Fermi vector in A             =   1.773888
 
 Write flags
   LWAVE        =      T    write WAVECAR
   LDOWNSAMPLE  =      F    k-point downsampling of WAVECAR
   LCHARG       =      T    write CHGCAR
   LVTOT        =      F    write LOCPOT, total local potential
   LVHAR        =      F    write LOCPOT, Hartree potential only
   LELF         =      F    write electronic localiz. function (ELF)
   LORBIT       =     11    0 simple, 1 ext, 2 COOP (PROOUT), +10 PAW based schemes


 Dipole corrections
   LMONO  =      F    monopole corrections only (constant potential shift)
   LDIPOL =      T    correct potential (dipole corrections)
   IDIPOL =      3    1-x, 2-y, 3-z, 4-all directions 
   EPSILON=  1.0000000 bulk dielectric constant

 Exchange correlation treatment:
   GGA     =    PE    GGA type
   LEXCH   =     8    internal setting for exchange type
   VOSKOWN=      0    Vosko Wilk Nusair interpolation
   EXXOEP  =     0    0=HF, 1=EXX-LHF (local Hartree Fock) 2=EXX OEP
   LHFCALC =     T    Hartree Fock is set to
   LSYMGRAD=     F    symmetrize gradient (conserves proper symmetry)
   PRECFOCK=normal    Normal, Fast or Accurate (Low or Medium for compatibility)
   LRHFCALC=     F    long range Hartree Fock
   LRSCOR  =     F    long range correlation only (use DFT for short range part)
   LTHOMAS =     F    Thomas Fermi screening in HF
   LMODELHF=     F    short range full HF, long range fraction AEXX
   ENCUT4O =  -1.0   cutoff for four orbital integrals eV
   LMAXFOCK=     4    L truncation for augmentation on plane wave grid
   LMAXFOCKAE=  -1    L truncation for all-electron charge restoration on plane wave grid
   NMAXFOCKAE=   1    number of basis functions for all-electron charge restoration
   LFOCKAEDFT=     F  apply the AE augmentation even for DFT
   NKREDX  =     1    reduce k-point grid by
   NKREDY  =     1    reduce k-point grid by
   NKREDZ  =     1    reduce k-point grid by
   SHIFTRED=     F    shift reduced grid of Gamma
   HFKIDENT=     F    idential grid for each k-point
   ODDONLY =     F    use only odd q-grid points
   EVENONLY=     F    use only even q-grid points
   HFALPHA =   -1.0000 decay constant for conv. correction
   MCALPHA =    0.0000 extent of test-charge in conv. correction in multipole expansion
   AEXX    =    0.2500 exact exchange contribution
   HFSCREEN=    0.2000 screening length (either q_TF or 0.3 A-1)
   HFSCREENC=   0.2000 screening length for correlation (either q_TF or 0.3 A-1)
   HFRCUT  =    0.0000 spherical cutoff for potential kernel
   ALDAX   =    0.7500 LDA exchange part
   AGGAX   =    0.7500 GGA exchange part
   ALDAC   =    1.0000 LDA correlation
   AGGAC   =    1.0000 GGA correlation
   ENCUTFOCK=  -1.0 apply spherical cutoff to Coloumb kernel
   NBANDSGWLOW=     1    first orbital included in HF term
   NBLOCK_FOCK=    64    blocking factor in FOCK_ACC
 Linear response parameters
   LEPSILON=     F    determine dielectric tensor
   LRPA    =     F    only Hartree local field effects (RPA)
   LNABLA  =     F    use nabla operator in PAW spheres
   LVEL    =     F    velocity operator in full k-point grid
   LINTERFAST=   F  fast interpolation
   KINTER  =     0    interpolate to denser k-point grid
   CSHIFT  =0.1000    complex shift for real part using Kramers Kronig
   OMEGAMAX=  -1.0    maximum frequency
   DEG_THRESHOLD= 0.2000000E-02 threshold for treating states as degnerate
   RTIME   =   -0.100 relaxation time in fs
  (WPLASMAI=    0.000 imaginary part of plasma frequency in eV, 0.658/RTIME)
   DFIELD  = 0.0000000 0.0000000 0.0000000 field for delta impulse in time
 
 Orbital magnetization related:
   ORBITALMAG=     F  switch on orbital magnetization
   LCHIMAG   =     F  perturbation theory with respect to B field
   DQ        =  0.001000  dq finite difference perturbation B field
   LLRAUG    =     F  two centre corrections for induced B field



--------------------------------------------------------------------------------------------------------


 Static calculation
 charge density and potential will be updated during run
 spin polarized calculation
 Conjugate gradient for all bands (Freysoldt, et al. PRB 79, 241103 (2009))
 perform sub-space diagonalisation
    before iterative eigenvector-optimisation
 modified Broyden-mixing scheme, WC =      100.0
 initial mixing is a Kerker type mixing with AMIX =  0.4000 and BMIX =      1.0000
 Hartree-type preconditioning will be used
 using additional bands           34
 reciprocal scheme for non local part
 use partial core corrections
 no Harris-corrections to forces 
 use gradient corrections 
 use of overlap-Matrix (Vanderbilt PP)
 Gauss-broadening in eV      SIGMA  =   0.10


--------------------------------------------------------------------------------------------------------


  energy-cutoff  :      500.00
  volume of cell :     3176.89
      direct lattice vectors                 reciprocal lattice vectors
    12.697700000  0.000000000  0.000000000     0.078754420 -0.000636556  0.000220998
     0.101231286 12.524290891  0.000000000     0.000000000  0.079844840  0.000020485
    -0.056099471 -0.005125317 19.976720572     0.000000000  0.000000000  0.050058266

  length of vectors
    12.697700000 12.524700000 19.976800000     0.078757303  0.079844842  0.050058266


 
 old parameters found on file WAVECAR:
  energy-cutoff  :      500.00
  volume of cell :     3176.89
      direct lattice vectors                 reciprocal lattice vectors
    12.697700000  0.000000000  0.000000000     0.078754420 -0.000636556  0.000220998
     0.101231286 12.524290891  0.000000000     0.000000000  0.079844840  0.000020485
    -0.056099471 -0.005125317 19.976720572     0.000000000  0.000000000  0.050058266

  length of vectors

 
 k-points in units of 2pi/SCALE and weight: KPOINTS created by Atomic Simulation Env
   0.01968861  0.01980207  0.00006037       0.500
  -0.01968861  0.02012035 -0.00005013       0.500
 
 k-points in reciprocal lattice and weights: KPOINTS created by Atomic Simulation Env
   0.25000000  0.25000000  0.00000000       0.500
  -0.25000000  0.25000000 -0.00000000       0.500
 
 position of ions in fractional coordinates (direct lattice) 
   0.22109734  0.99768834  0.50152476
   0.05370215  0.09827175  0.50033818
   0.10997845  0.99841896  0.50055191
   0.27611470  0.09606791  0.50287139
   0.21965849  0.19408567  0.50291515
   0.05465829  0.29837172  0.50037211
   0.10848451  0.19705688  0.50118013
   0.27518285  0.29165129  0.50475589
   0.06270300  0.49863014  0.49779508
   0.11550801  0.39570916  0.49995188
   0.05919033  0.69847124  0.49747486
   0.11951566  0.59965642  0.49697530
   0.27919135  0.70087757  0.49730829
   0.22386407  0.80007453  0.49918556
   0.05602236  0.89862924  0.49929930
   0.11222081  0.79915591  0.49875741
   0.27782427  0.89915411  0.50061481
   0.55545898  0.99939496  0.50011993
   0.38749127  0.09730395  0.50347518
   0.44410733  0.99854004  0.50138773
   0.61002252  0.09857692  0.50170140
   0.55438114  0.19712325  0.50620483
   0.44108196  0.19715512  0.50586535
   0.55628999  0.60648392  0.49433485
   0.39152409  0.70120535  0.49644799
   0.61239600  0.70415082  0.49486409
   0.55655101  0.80247185  0.49630395
   0.38898759  0.89962073  0.50010819
   0.44482089  0.80036954  0.49777757
   0.61147437  0.90063769  0.49766108
   0.88854224  0.99951233  0.49860831
   0.72155074  0.10039431  0.50026056
   0.77744293  0.00016757  0.49854002
   0.94231495  0.09979728  0.49932326
   0.88701554  0.20059033  0.49953843
   0.71654795  0.30139179  0.50382985
   0.77486778  0.20122157  0.50067476
   0.94263195  0.30053420  0.49973791
   0.88727633  0.40178655  0.49910698
   0.71919850  0.50437648  0.49768249
   0.77339017  0.40274659  0.50061829
   0.94811248  0.49946702  0.49751853
   0.89158905  0.59902556  0.49644805
   0.72407535  0.70146686  0.49534113
   0.77878096  0.60073874  0.49583010
   0.94704511  0.69859625  0.49688754
   0.89106972  0.79918465  0.49711846
   0.72322474  0.90026920  0.49732701
   0.77919881  0.80046503  0.49635019
   0.94463665  0.89912334  0.49829136
   0.38616726  0.29668645  0.50802591
   0.60537746  0.29718987  0.51025286
   0.22258341  0.38833212  0.50194959
   0.22804635  0.60408164  0.49602057
   0.60910351  0.51115030  0.49769196
   0.44659236  0.60255536  0.49274177
   0.34240873  0.48395352  0.48807593
   0.49799521  0.41581009  0.54056405
 
 position of ions in cartesian coordinates  (Angst):
   2.88028966 12.49276849 10.01881999
   0.66377324  1.22821961  9.99511603
   1.46946384 12.50192401  9.99938557
   3.48753587  1.20060507 10.04572123
   2.78059182  2.42820773 10.04659533
   0.69616850  3.73432969  9.99579377
   1.36933614  2.46542896 10.01193549
   3.49539702  3.65013859 10.08336744
   0.81873484  6.24243758  9.94431325
   1.47869721  4.95341417  9.98739895
   0.79438012  8.74530733  9.93791631
   1.55039797  7.50772427  9.92793674
   3.58813998  8.77544568  9.93458866
   2.89554736 10.01780772  9.97209046
   0.77431414 11.25213497  9.97436261
   1.47786576 10.00630484  9.96353751
   3.59066755 11.25870183 10.00064213
   7.12616510 12.51414992  9.99075602
   4.90185335  1.21608246 10.05778308
   5.71209752 12.50343611 10.01608267
   7.72771685  1.23203467 10.02234863
   7.03092268  2.46623451 10.11231236
   5.59230592  2.46663539 10.10553084
   7.09726657  7.59324737  9.87518919
   5.01458884  8.77955539  9.91740274
   7.81954119  8.81645332  9.88576168
   7.12031058 10.04784721  9.91452531
   5.00226171 11.26454852  9.99052152
   5.70129964 10.02150969  9.94396352
   7.82757230 11.27729774  9.94163624
  11.35565300 12.51562770  9.96055878
   9.14413354  1.25480360  9.99356541
   9.84378618 -0.00045648  9.95919476
  11.94732335  1.24733101  9.97484115
  11.25533941  2.50969139  9.97913960
   9.10075654  3.77213613 10.06486819
   9.83132088  2.51759132 10.00183980
  11.97164619  3.76141638  9.98312451
  11.27904245  5.02953353  9.97052064
   9.15530569  6.31440694  9.94206396
   9.83296253  5.04154965 10.00071170
  12.06149903  6.25292028  9.93878858
  11.35391988  7.49982593  9.91740394
   9.23731357  8.78283622  9.89529132
   9.92172477  7.52128550  9.90505933
  12.06813933  8.74687598  9.92618359
  11.36755035 10.00667317  9.93079647
   9.24652639 11.27268434  9.93496261
   9.94721989 10.02271295  9.91544899
  12.05777829 11.25832830  9.95422728
   4.90496999  3.71318360 10.14869172
   7.68836132  3.71947717 10.19317886
   2.83744959  4.86101174 10.02730677
   2.92898957  7.56315192  9.90886429
   7.75803781  6.39924423  9.94225318
   5.70405074  7.54405309  9.84336470
   4.36941375  6.05867315  9.75015645
   6.33516144  5.20495600 10.79869698
 


--------------------------------------------------------------------------------------------------------


 k-point  1 :   0.2500 0.2500 0.0000  plane waves:   80692
 k-point  2 :  -0.2500 0.2500-0.0000  plane waves:   80667

 maximum and minimum number of plane-waves per node :      2553     2493

 maximum number of plane-waves:     80692
 maximum index in each direction: 
   IXMAX=   23   IYMAX=   22   IZMAX=   36
   IXMIN=  -23   IYMIN=  -23   IZMIN=  -36


 parallel 3D FFT for wavefunctions:
    minimum data exchange during FFTs selected (reduces bandwidth)
 parallel 3D FFT for charge:
    minimum data exchange during FFTs selected (reduces bandwidth)


 FFT grid for exact exchange (Hartree Fock) 
  NGX = 70; NGY = 70; NGZ =112

 
 Radii for the augmentation spheres in the non-local exchange
 for species   1 augmentation radius   0.874 (default was   0.699)
       energy cutoff for augmentation   2000.0
 for species   2 augmentation radius   0.886 (default was   0.709)
       energy cutoff for augmentation   2000.0
 for species   3 augmentation radius   1.263 (default was   1.010)
       energy cutoff for augmentation   2000.0
 for species   4 augmentation radius   1.575 (default was   1.260)
       energy cutoff for augmentation   2000.0

 real space projection operators:
  total allocation   :       2735.88 KBytes
  max/ min on nodes  :        125.30         39.52

 Maximum index for augmentation-charges in exchange          220
  SETUP_FOCK is finished

 total amount of memory used by VASP MPI-rank0   166016. kBytes
=======================================================================

   base      :      30000. kBytes
   nonl-proj :       5326. kBytes
   fftplans  :      14250. kBytes
   grid      :      36827. kBytes
   one-center:         62. kBytes
   HF        :         23. kBytes
   nonlr-proj:       3037. kBytes
   wavefun   :      76491. kBytes
 
     INWAV:  cpu time    3.4818: real time    3.4825
 Broyden mixing: mesh for mixing (old mesh)
   NGX = 47   NGY = 45   NGZ = 73
  (NGX  =192   NGY  =192   NGZ  =300)
  gives a total of 154395 points

 charge density for first step will be calculated from the start-wavefunctions


--------------------------------------------------------------------------------------------------------


 Maximum index for augmentation-charges         1149 (set IRDMAX)


--------------------------------------------------------------------------------------------------------


 initial charge from wavefunction
 First call to EWALD:  gamma=   0.121
 Maximum number of real-space cells 3x 3x 2
 Maximum number of reciprocal cells 2x 2x 4

    FEWALD:  cpu time    0.0038: real time    0.0038


--------------------------------------- Iteration      1(   1)  ---------------------------------------


    POTLOK:  cpu time    1.3992: real time    1.4009
    SETDIJ:  cpu time    2.0920: real time    2.0928
    TRIAL :  cpu time  510.6862: real time  511.0222
    CORREC:  cpu time    0.0020: real time    0.0022
    CHARGE:  cpu time    1.6686: real time    1.6689
    --------------------------------------------
      LOOP:  cpu time  515.8638: real time  516.2058

 eigenvalue-minimisations  :     0
 total energy-change (2. order) :-0.6072136E+03  (-0.4669087E+00)
 number of electron     239.9999995 magnetization       2.0001944
 augmentation part       11.1007101 magnetization       1.6783898

 DIPCOR: dipole corrections for dipol
 direction  3 min pos     1,
 dipolmoment           0.000856      0.000078     -0.304823 electrons x Angstroem
 Tr[quadrupol]     -6297.960525

 energy correction for charged system         0.000000 eV
 dipol+quadrupol energy correction           -0.002657 eV
 added-field ion interaction         -0.017191 eV  (added to PSCEN)


 Free energy of the ion-electron system (eV)
  ---------------------------------------------------
  alpha Z        PSCENC =       100.35014972
  Ewald energy   TEWEN  =     37993.23108801
  -Hartree energ DENC   =    -46016.40260852
  -exchange      EXHF   =       540.31237673
  -V(xc)+E(xc)   XCENC  =       585.09695255
  PAW double counting   =     25863.84625645   -25868.44107760
  entropy T*S    EENTRO =        -0.00070016
  eigenvalues    EBANDS =     -3093.32931955
  atomic energy  EATOM  =      9288.12480467
  ---------------------------------------------------
  free energy    TOTEN  =      -607.21362905 eV

  energy without entropy =     -607.21292889  energy(sigma->0) =     -607.21327897
  exchange ACFDT corr.  =        -0.00296401  see jH, gK, PRB 81, 115126


--------------------------------------------------------------------------------------------------------




--------------------------------------- Iteration      1(   2)  ---------------------------------------


    POTLOK:  cpu time    1.4100: real time    1.4102
    SETDIJ:  cpu time    2.0824: real time    2.0825
    TRIAL :  cpu time  511.8031: real time  511.9164
    CORREC:  cpu time    0.0020: real time    0.0023
    CHARGE:  cpu time    1.6652: real time    1.6655
    --------------------------------------------
      LOOP:  cpu time  516.9650: real time  517.0790

 eigenvalue-minimisations  :     0
 total energy-change (2. order) :-0.3829706E+00  (-0.4162342E+00)
 number of electron     239.9999995 magnetization       2.0001686
 augmentation part       11.0544194 magnetization       1.7249750

 DIPCOR: dipole corrections for dipol
 direction  3 min pos     1,
 dipolmoment           0.000925      0.000084     -0.329243 electrons x Angstroem
 Tr[quadrupol]     -6297.769538

 energy correction for charged system         0.000000 eV
 dipol+quadrupol energy correction           -0.003100 eV
 added-field ion interaction         -0.018568 eV  (added to PSCEN)


 Free energy of the ion-electron system (eV)
  ---------------------------------------------------
  alpha Z        PSCENC =       100.34832978
  Ewald energy   TEWEN  =     37993.23108801
  -Hartree energ DENC   =    -46002.12067367
  -exchange      EXHF   =       540.23241011
  -V(xc)+E(xc)   XCENC  =       584.82202263
  PAW double counting   =     25992.16087047   -25996.48162800
  entropy T*S    EENTRO =        -0.00012764
  eigenvalues    EBANDS =     -3107.91312352
  atomic energy  EATOM  =      9288.12480467
  ---------------------------------------------------
  free energy    TOTEN  =      -607.59659968 eV

  energy without entropy =     -607.59647204  energy(sigma->0) =     -607.59653586
  exchange ACFDT corr.  =        -0.00085271  see jH, gK, PRB 81, 115126


--------------------------------------------------------------------------------------------------------




--------------------------------------- Iteration      1(   3)  ---------------------------------------


    POTLOK:  cpu time    1.4144: real time    1.4147
    SETDIJ:  cpu time    2.0743: real time    2.0745
    TRIAL :  cpu time  509.2859: real time  509.3894
    CORREC:  cpu time    0.0017: real time    0.0017
    CHARGE:  cpu time    1.6564: real time    1.6572
    --------------------------------------------
      LOOP:  cpu time  514.4348: real time  514.5395

 eigenvalue-minimisations  :     0
 total energy-change (2. order) :-0.3221819E+00  (-0.2534021E+00)
 number of electron     239.9999995 magnetization       2.0000531
 augmentation part       11.0435830 magnetization       1.7580936

 DIPCOR: dipole corrections for dipol
 direction  3 min pos     1,
 dipolmoment           0.000854      0.000078     -0.304063 electrons x Angstroem
 Tr[quadrupol]     -6297.536958

 energy correction for charged system         0.000000 eV
 dipol+quadrupol energy correction           -0.002644 eV
 added-field ion interaction         -0.017148 eV  (added to PSCEN)


 Free energy of the ion-electron system (eV)
  ---------------------------------------------------
  alpha Z        PSCENC =       100.35020585
  Ewald energy   TEWEN  =     37993.23108801
  -Hartree energ DENC   =    -45984.06725114
  -exchange      EXHF   =       540.16444199
  -V(xc)+E(xc)   XCENC  =       584.48033400
  PAW double counting   =     26153.38036954   -26157.37607857
  entropy T*S    EENTRO =        -0.00002199
  eigenvalues    EBANDS =     -3126.20656825
  atomic energy  EATOM  =      9288.12480467
  ---------------------------------------------------
  free energy    TOTEN  =      -607.91878154 eV

  energy without entropy =     -607.91875955  energy(sigma->0) =     -607.91877055
  exchange ACFDT corr.  =        -0.00012873  see jH, gK, PRB 81, 115126


--------------------------------------------------------------------------------------------------------




--------------------------------------- Iteration      1(   4)  ---------------------------------------


    POTLOK:  cpu time    1.4159: real time    1.4168
    SETDIJ:  cpu time    2.0833: real time    2.0839
    TRIAL :  cpu time  509.4131: real time  509.6497
    CORREC:  cpu time    0.0017: real time    0.0020
    CHARGE:  cpu time    1.6557: real time    1.6560
    --------------------------------------------
      LOOP:  cpu time  514.5722: real time  514.8108

 eigenvalue-minimisations  :     0
 total energy-change (2. order) :-0.1969965E+00  (-0.1555698E+00)
 number of electron     239.9999995 magnetization       2.0000112
 augmentation part       11.0534109 magnetization       1.7772025

 DIPCOR: dipole corrections for dipol
 direction  3 min pos     1,
 dipolmoment           0.000766      0.000070     -0.272700 electrons x Angstroem
 Tr[quadrupol]     -6297.418539

 energy correction for charged system         0.000000 eV
 dipol+quadrupol energy correction           -0.002126 eV
 added-field ion interaction         -0.015379 eV  (added to PSCEN)


 Free energy of the ion-electron system (eV)
  ---------------------------------------------------
  alpha Z        PSCENC =       100.35249186
  Ewald energy   TEWEN  =     37993.23108801
  -Hartree energ DENC   =    -45974.61594677
  -exchange      EXHF   =       540.28066951
  -V(xc)+E(xc)   XCENC  =       584.33273642
  PAW double counting   =     26291.58475299   -26295.56276614
  entropy T*S    EENTRO =        -0.00000405
  eigenvalues    EBANDS =     -3135.84358663
  atomic energy  EATOM  =      9288.12480467
  ---------------------------------------------------
  free energy    TOTEN  =      -608.11577806 eV

  energy without entropy =     -608.11577401  energy(sigma->0) =     -608.11577603
  exchange ACFDT corr.  =        -0.00001440  see jH, gK, PRB 81, 115126


--------------------------------------------------------------------------------------------------------




--------------------------------------- Iteration      1(   5)  ---------------------------------------


    POTLOK:  cpu time    1.4146: real time    1.4148
    SETDIJ:  cpu time    2.0825: real time    2.0830
    TRIAL :  cpu time  509.1951: real time  509.3273
    CORREC:  cpu time    0.0016: real time    0.0016
    CHARGE:  cpu time    1.6601: real time    1.6610
    --------------------------------------------
      LOOP:  cpu time  514.3562: real time  514.4901

 eigenvalue-minimisations  :     0
 total energy-change (2. order) :-0.1260914E+00  (-0.1063040E+00)
 number of electron     239.9999995 magnetization       2.0000024
 augmentation part       11.0643573 magnetization       1.7865977

 DIPCOR: dipole corrections for dipol
 direction  3 min pos     1,
 dipolmoment           0.000741      0.000068     -0.263971 electrons x Angstroem
 Tr[quadrupol]     -6297.421448

 energy correction for charged system         0.000000 eV
 dipol+quadrupol energy correction           -0.001992 eV
 added-field ion interaction         -0.014887 eV  (added to PSCEN)


 Free energy of the ion-electron system (eV)
  ---------------------------------------------------
  alpha Z        PSCENC =       100.35311808
  Ewald energy   TEWEN  =     37993.23108801
  -Hartree energ DENC   =    -45974.59360977
  -exchange      EXHF   =       540.56390992
  -V(xc)+E(xc)   XCENC  =       584.40170766
  PAW double counting   =     26390.56426421   -26394.68603192
  entropy T*S    EENTRO =        -0.00000084
  eigenvalues    EBANDS =     -3136.20111627
  atomic energy  EATOM  =      9288.12480467
  ---------------------------------------------------
  free energy    TOTEN  =      -608.24186946 eV

  energy without entropy =     -608.24186862  energy(sigma->0) =     -608.24186904
  exchange ACFDT corr.  =        -0.00000184  see jH, gK, PRB 81, 115126


--------------------------------------------------------------------------------------------------------




--------------------------------------- Iteration      1(   6)  ---------------------------------------


    POTLOK:  cpu time    1.4134: real time    1.4141
    SETDIJ:  cpu time    2.0793: real time    2.0829
    TRIAL :  cpu time  509.7753: real time  510.0538
    CORREC:  cpu time    0.0016: real time    0.0018
    CHARGE:  cpu time    1.6609: real time    1.6617
    --------------------------------------------
      LOOP:  cpu time  514.9333: real time  515.2171

 eigenvalue-minimisations  :     0
 total energy-change (2. order) :-0.8953209E-01  (-0.7634708E-01)
 number of electron     239.9999994 magnetization       2.0000006
 augmentation part       11.0709870 magnetization       1.7905938

 DIPCOR: dipole corrections for dipol
 direction  3 min pos     1,
 dipolmoment           0.000754      0.000069     -0.268407 electrons x Angstroem
 Tr[quadrupol]     -6297.473503

 energy correction for charged system         0.000000 eV
 dipol+quadrupol energy correction           -0.002060 eV
 added-field ion interaction         -0.015137 eV  (added to PSCEN)


 Free energy of the ion-electron system (eV)
  ---------------------------------------------------
  alpha Z        PSCENC =       100.35280037
  Ewald energy   TEWEN  =     37993.23108801
  -Hartree energ DENC   =    -45978.55961101
  -exchange      EXHF   =       540.88801526
  -V(xc)+E(xc)   XCENC  =       584.56536924
  PAW double counting   =     26453.18155390   -26457.39416061
  entropy T*S    EENTRO =        -0.00000020
  eigenvalues    EBANDS =     -3132.72126055
  atomic energy  EATOM  =      9288.12480467
  ---------------------------------------------------
  free energy    TOTEN  =      -608.33140155 eV

  energy without entropy =     -608.33140135  energy(sigma->0) =     -608.33140145
  exchange ACFDT corr.  =        -0.00000030  see jH, gK, PRB 81, 115126


--------------------------------------------------------------------------------------------------------




--------------------------------------- Iteration      1(   7)  ---------------------------------------


    POTLOK:  cpu time    1.4122: real time    1.4130
    SETDIJ:  cpu time    2.0796: real time    2.0802
    TRIAL :  cpu time  507.8947: real time  508.1905
    CORREC:  cpu time    0.0015: real time    0.0017
    CHARGE:  cpu time    1.6590: real time    1.6598
    --------------------------------------------
      LOOP:  cpu time  513.0492: real time  513.3474

 eigenvalue-minimisations  :     0
 total energy-change (2. order) :-0.6569461E-01  (-0.5505696E-01)
 number of electron     239.9999994 magnetization       2.0000002
 augmentation part       11.0760962 magnetization       1.7926100

 DIPCOR: dipole corrections for dipol
 direction  3 min pos     1,
 dipolmoment           0.000766      0.000070     -0.272703 electrons x Angstroem
 Tr[quadrupol]     -6297.521286

 energy correction for charged system         0.000000 eV
 dipol+quadrupol energy correction           -0.002126 eV
 added-field ion interaction         -0.015380 eV  (added to PSCEN)


 Free energy of the ion-electron system (eV)
  ---------------------------------------------------
  alpha Z        PSCENC =       100.35249162
  Ewald energy   TEWEN  =     37993.23108801
  -Hartree energ DENC   =    -45982.45385383
  -exchange      EXHF   =       541.16317784
  -V(xc)+E(xc)   XCENC  =       584.72536151
  PAW double counting   =     26489.13012320   -26493.35513828
  entropy T*S    EENTRO =        -0.00000005
  eigenvalues    EBANDS =     -3129.31515071
  atomic energy  EATOM  =      9288.12480467
  ---------------------------------------------------
  free energy    TOTEN  =      -608.39709616 eV

  energy without entropy =     -608.39709611  energy(sigma->0) =     -608.39709613
  exchange ACFDT corr.  =        -0.00000006  see jH, gK, PRB 81, 115126


--------------------------------------------------------------------------------------------------------




--------------------------------------- Iteration      1(   8)  ---------------------------------------


    POTLOK:  cpu time    1.4145: real time    1.4153
    SETDIJ:  cpu time    2.0809: real time    2.0812
    TRIAL :  cpu time  507.2060: real time  507.4814
    CORREC:  cpu time    0.0014: real time    0.0016
    CHARGE:  cpu time    1.6652: real time    1.6658
    --------------------------------------------
      LOOP:  cpu time  512.3702: real time  512.6476

 eigenvalue-minimisations  :     0
 total energy-change (2. order) :-0.4830391E-01  (-0.4082840E-01)
 number of electron     239.9999994 magnetization       2.0000001
 augmentation part       11.0817013 magnetization       1.7943382

 DIPCOR: dipole corrections for dipol
 direction  3 min pos     1,
 dipolmoment           0.000764      0.000070     -0.272166 electrons x Angstroem
 Tr[quadrupol]     -6297.546977

 energy correction for charged system         0.000000 eV
 dipol+quadrupol energy correction           -0.002118 eV
 added-field ion interaction         -0.015349 eV  (added to PSCEN)


 Free energy of the ion-electron system (eV)
  ---------------------------------------------------
  alpha Z        PSCENC =       100.35253027
  Ewald energy   TEWEN  =     37993.23108801
  -Hartree energ DENC   =    -45984.88404122
  -exchange      EXHF   =       541.36309118
  -V(xc)+E(xc)   XCENC  =       584.84400982
  PAW double counting   =     26508.12508341   -26512.35647007
  entropy T*S    EENTRO =        -0.00000001
  eigenvalues    EBANDS =     -3127.24549609
  atomic energy  EATOM  =      9288.12480467
  ---------------------------------------------------
  free energy    TOTEN  =      -608.44540007 eV

  energy without entropy =     -608.44540005  energy(sigma->0) =     -608.44540006
  exchange ACFDT corr.  =        -0.00000001  see jH, gK, PRB 81, 115126


--------------------------------------------------------------------------------------------------------




--------------------------------------- Iteration      1(   9)  ---------------------------------------


    POTLOK:  cpu time    1.4099: real time    1.4104
    SETDIJ:  cpu time    2.0839: real time    2.0842
    TRIAL :  cpu time  507.3383: real time  507.5915
    CORREC:  cpu time    0.0014: real time    0.0016
    CHARGE:  cpu time    1.6543: real time    1.6550
    --------------------------------------------
      LOOP:  cpu time  512.4901: real time  512.7450

 eigenvalue-minimisations  :     0
 total energy-change (2. order) :-0.3651152E-01  (-0.3126525E-01)
 number of electron     239.9999994 magnetization       2.0000001
 augmentation part       11.0871778 magnetization       1.7961394

 DIPCOR: dipole corrections for dipol
 direction  3 min pos     1,
 dipolmoment           0.000751      0.000069     -0.267519 electrons x Angstroem
 Tr[quadrupol]     -6297.553384

 energy correction for charged system         0.000000 eV
 dipol+quadrupol energy correction           -0.002046 eV
 added-field ion interaction         -0.015087 eV  (added to PSCEN)


 Free energy of the ion-electron system (eV)
  ---------------------------------------------------
  alpha Z        PSCENC =       100.35286408
  Ewald energy   TEWEN  =     37993.23108801
  -Hartree energ DENC   =    -45985.91655254
  -exchange      EXHF   =       541.49766993
  -V(xc)+E(xc)   XCENC  =       584.92056553
  PAW double counting   =     26517.46530809   -26521.73254596
  entropy T*S    EENTRO =        -0.00000000
  eigenvalues    EBANDS =     -3126.42511339
  atomic energy  EATOM  =      9288.12480467
  ---------------------------------------------------
  free energy    TOTEN  =      -608.48191159 eV

  energy without entropy =     -608.48191159  energy(sigma->0) =     -608.48191159
  exchange ACFDT corr.  =        -0.00000000  see jH, gK, PRB 81, 115126


--------------------------------------------------------------------------------------------------------




--------------------------------------- Iteration      1(  10)  ---------------------------------------


    POTLOK:  cpu time    1.4068: real time    1.4074
    SETDIJ:  cpu time    2.0790: real time    2.0793
    TRIAL :  cpu time  508.1154: real time  508.1993
    CORREC:  cpu time    0.0012: real time    0.0015
    CHARGE:  cpu time    1.6579: real time    1.6582
    --------------------------------------------
      LOOP:  cpu time  513.2628: real time  513.3482

 eigenvalue-minimisations  :     0
 total energy-change (2. order) :-0.2831778E-01  (-0.2433715E-01)
 number of electron     239.9999994 magnetization       2.0000001
 augmentation part       11.0915249 magnetization       1.7980023

 DIPCOR: dipole corrections for dipol
 direction  3 min pos     1,
 dipolmoment           0.000734      0.000067     -0.261548 electrons x Angstroem
 Tr[quadrupol]     -6297.549409

 energy correction for charged system         0.000000 eV
 dipol+quadrupol energy correction           -0.001956 eV
 added-field ion interaction         -0.014751 eV  (added to PSCEN)


 Free energy of the ion-electron system (eV)
  ---------------------------------------------------
  alpha Z        PSCENC =       100.35329117
  Ewald energy   TEWEN  =     37993.23108801
  -Hartree energ DENC   =    -45986.06908573
  -exchange      EXHF   =       541.58808955
  -V(xc)+E(xc)   XCENC  =       584.96770191
  PAW double counting   =     26521.61346074   -26525.93117999
  entropy T*S    EENTRO =        -0.00000000
  eigenvalues    EBANDS =     -3126.38839971
  atomic energy  EATOM  =      9288.12480467
  ---------------------------------------------------
  free energy    TOTEN  =      -608.51022937 eV

  energy without entropy =     -608.51022937  energy(sigma->0) =     -608.51022937
  exchange ACFDT corr.  =        -0.00000000  see jH, gK, PRB 81, 115126


--------------------------------------------------------------------------------------------------------




--------------------------------------- Iteration      1(  11)  ---------------------------------------


    POTLOK:  cpu time    1.4057: real time    1.4061
    SETDIJ:  cpu time    2.0785: real time    2.0787
    TRIAL :  cpu time  506.7280: real time  506.8988
    CORREC:  cpu time    0.0012: real time    0.0014
    CHARGE:  cpu time    1.6516: real time    1.6523
    --------------------------------------------
      LOOP:  cpu time  511.8708: real time  512.0431

 eigenvalue-minimisations  :     0
 total energy-change (2. order) :-0.2227037E-01  (-0.1922916E-01)
 number of electron     239.9999994 magnetization       2.0000001
 augmentation part       11.0945402 magnetization       1.7999009

 DIPCOR: dipole corrections for dipol
 direction  3 min pos     1,
 dipolmoment           0.000722      0.000066     -0.257031 electrons x Angstroem
 Tr[quadrupol]     -6297.543059

 energy correction for charged system         0.000000 eV
 dipol+quadrupol energy correction           -0.001889 eV
 added-field ion interaction         -0.014496 eV  (added to PSCEN)


 Free energy of the ion-electron system (eV)
  ---------------------------------------------------
  alpha Z        PSCENC =       100.35361287
  Ewald energy   TEWEN  =     37993.23108801
  -Hartree energ DENC   =    -45985.88516352
  -exchange      EXHF   =       541.65462726
  -V(xc)+E(xc)   XCENC  =       584.99996919
  PAW double counting   =     26523.24393871   -26527.60606359
  entropy T*S    EENTRO =        -0.00000000
  eigenvalues    EBANDS =     -3126.64931334
  atomic energy  EATOM  =      9288.12480467
  ---------------------------------------------------
  free energy    TOTEN  =      -608.53249974 eV

  energy without entropy =     -608.53249974  energy(sigma->0) =     -608.53249974
  exchange ACFDT corr.  =        -0.00000000  see jH, gK, PRB 81, 115126


--------------------------------------------------------------------------------------------------------




--------------------------------------- Iteration      1(  12)  ---------------------------------------


    POTLOK:  cpu time    1.4031: real time    1.4036
    SETDIJ:  cpu time    2.0812: real time    2.0815
    TRIAL :  cpu time  505.8985: real time  506.0201
    CORREC:  cpu time    0.0011: real time    0.0013
    CHARGE:  cpu time    1.6455: real time    1.6455
    --------------------------------------------
      LOOP:  cpu time  511.0316: real time  511.1544

 eigenvalue-minimisations  :     0
 total energy-change (2. order) :-0.1776790E-01  (-0.1543759E-01)
 number of electron     239.9999994 magnetization       2.0000001
 augmentation part       11.0966698 magnetization       1.8017669

 DIPCOR: dipole corrections for dipol
 direction  3 min pos     1,
 dipolmoment           0.000716      0.000065     -0.255054 electrons x Angstroem
 Tr[quadrupol]     -6297.538579

 energy correction for charged system         0.000000 eV
 dipol+quadrupol energy correction           -0.001860 eV
 added-field ion interaction         -0.014384 eV  (added to PSCEN)


 Free energy of the ion-electron system (eV)
  ---------------------------------------------------
  alpha Z        PSCENC =       100.35375332
  Ewald energy   TEWEN  =     37993.23108801
  -Hartree energ DENC   =    -45985.71613373
  -exchange      EXHF   =       541.71056395
  -V(xc)+E(xc)   XCENC  =       585.02738882
  PAW double counting   =     26524.07521327   -26528.46916115
  entropy T*S    EENTRO =        -0.00000000
  eigenvalues    EBANDS =     -3126.88778479
  atomic energy  EATOM  =      9288.12480467
  ---------------------------------------------------
  free energy    TOTEN  =      -608.55026764 eV

  energy without entropy =     -608.55026764  energy(sigma->0) =     -608.55026764
  exchange ACFDT corr.  =        -0.00000000  see jH, gK, PRB 81, 115126


--------------------------------------------------------------------------------------------------------




--------------------------------------- Iteration      1(  13)  ---------------------------------------


    POTLOK:  cpu time    1.4042: real time    1.4044
    SETDIJ:  cpu time    2.0797: real time    2.0801
    TRIAL :  cpu time  506.7036: real time  506.7939
    CORREC:  cpu time    0.0011: real time    0.0014
    CHARGE:  cpu time    1.6450: real time    1.6453
    --------------------------------------------
      LOOP:  cpu time  511.8362: real time  511.9276

 eigenvalue-minimisations  :     0
 total energy-change (2. order) :-0.1438722E-01  (-0.1257993E-01)
 number of electron     239.9999994 magnetization       2.0000001
 augmentation part       11.0984392 magnetization       1.8034675

 DIPCOR: dipole corrections for dipol
 direction  3 min pos     1,
 dipolmoment           0.000715      0.000065     -0.254661 electrons x Angstroem
 Tr[quadrupol]     -6297.536723

 energy correction for charged system         0.000000 eV
 dipol+quadrupol energy correction           -0.001854 eV
 added-field ion interaction         -0.014362 eV  (added to PSCEN)


 Free energy of the ion-electron system (eV)
  ---------------------------------------------------
  alpha Z        PSCENC =       100.35378123
  Ewald energy   TEWEN  =     37993.23108801
  -Hartree energ DENC   =    -45985.67642186
  -exchange      EXHF   =       541.76141894
  -V(xc)+E(xc)   XCENC  =       585.05377344
  PAW double counting   =     26525.08161199   -26529.49919243
  entropy T*S    EENTRO =        -0.00000000
  eigenvalues    EBANDS =     -3126.99551886
  atomic energy  EATOM  =      9288.12480467
  ---------------------------------------------------
  free energy    TOTEN  =      -608.56465486 eV

  energy without entropy =     -608.56465486  energy(sigma->0) =     -608.56465486
  exchange ACFDT corr.  =        -0.00000000  see jH, gK, PRB 81, 115126


--------------------------------------------------------------------------------------------------------




--------------------------------------- Iteration      1(  14)  ---------------------------------------


    POTLOK:  cpu time    1.3984: real time    1.3989
    SETDIJ:  cpu time    2.0728: real time    2.0819
    TRIAL :  cpu time  505.7841: real time  505.8927
    CORREC:  cpu time    0.0012: real time    0.0015
    CHARGE:  cpu time    1.6467: real time    1.6471
    --------------------------------------------
      LOOP:  cpu time  510.9058: real time  511.0244

 eigenvalue-minimisations  :     0
 total energy-change (2. order) :-0.1181009E-01  (-0.1039307E-01)
 number of electron     239.9999994 magnetization       2.0000001
 augmentation part       11.1000868 magnetization       1.8049214

 DIPCOR: dipole corrections for dipol
 direction  3 min pos     1,
 dipolmoment           0.000714      0.000065     -0.254329 electrons x Angstroem
 Tr[quadrupol]     -6297.536533

 energy correction for charged system         0.000000 eV
 dipol+quadrupol energy correction           -0.001850 eV
 added-field ion interaction         -0.014343 eV  (added to PSCEN)


 Free energy of the ion-electron system (eV)
  ---------------------------------------------------
  alpha Z        PSCENC =       100.35380475
  Ewald energy   TEWEN  =     37993.23108801
  -Hartree energ DENC   =    -45985.73271100
  -exchange      EXHF   =       541.80800341
  -V(xc)+E(xc)   XCENC  =       585.07893362
  PAW double counting   =     26526.48256407   -26530.92147644
  entropy T*S    EENTRO =        -0.00000000
  eigenvalues    EBANDS =     -3127.00147603
  atomic energy  EATOM  =      9288.12480467
  ---------------------------------------------------
  free energy    TOTEN  =      -608.57646495 eV

  energy without entropy =     -608.57646495  energy(sigma->0) =     -608.57646495
  exchange ACFDT corr.  =        -0.00000000  see jH, gK, PRB 81, 115126


--------------------------------------------------------------------------------------------------------




--------------------------------------- Iteration      1(  15)  ---------------------------------------


    POTLOK:  cpu time    1.3994: real time    1.3997
    SETDIJ:  cpu time    2.0839: real time    2.0841
    TRIAL :  cpu time  506.9536: real time  507.0517
    CORREC:  cpu time    0.0010: real time    0.0013
    CHARGE:  cpu time    1.6469: real time    1.6469
    --------------------------------------------
      LOOP:  cpu time  512.0874: real time  512.1862

 eigenvalue-minimisations  :     0
 total energy-change (2. order) :-0.9819089E-02  (-0.8701720E-02)
 number of electron     239.9999994 magnetization       2.0000001
 augmentation part       11.1016096 magnetization       1.8061482

 DIPCOR: dipole corrections for dipol
 direction  3 min pos     1,
 dipolmoment           0.000712      0.000065     -0.253362 electrons x Angstroem
 Tr[quadrupol]     -6297.536773

 energy correction for charged system         0.000000 eV
 dipol+quadrupol energy correction           -0.001835 eV
 added-field ion interaction         -0.014289 eV  (added to PSCEN)


 Free energy of the ion-electron system (eV)
  ---------------------------------------------------
  alpha Z        PSCENC =       100.35387335
  Ewald energy   TEWEN  =     37993.23108801
  -Hartree energ DENC   =    -45985.80621958
  -exchange      EXHF   =       541.84970122
  -V(xc)+E(xc)   XCENC  =       585.10156673
  PAW double counting   =     26528.25292693   -26532.71269337
  entropy T*S    EENTRO =        -0.00000000
  eigenvalues    EBANDS =     -3126.98133200
  atomic energy  EATOM  =      9288.12480467
  ---------------------------------------------------
  free energy    TOTEN  =      -608.58628404 eV

  energy without entropy =     -608.58628404  energy(sigma->0) =     -608.58628404
  exchange ACFDT corr.  =        -0.00000000  see jH, gK, PRB 81, 115126


--------------------------------------------------------------------------------------------------------




--------------------------------------- Iteration      1(  16)  ---------------------------------------


    POTLOK:  cpu time    1.3963: real time    1.3965
    SETDIJ:  cpu time    2.0840: real time    2.0846
    TRIAL :  cpu time  506.0139: real time  506.1327
    CORREC:  cpu time    0.0010: real time    0.0013
    CHARGE:  cpu time    1.6426: real time    1.6427
    --------------------------------------------
      LOOP:  cpu time  511.1405: real time  511.2605

 eigenvalue-minimisations  :     0
 total energy-change (2. order) :-0.8266699E-02  (-0.7380134E-02)
 number of electron     239.9999994 magnetization       2.0000001
 augmentation part       11.1029442 magnetization       1.8072209

 DIPCOR: dipole corrections for dipol
 direction  3 min pos     1,
 dipolmoment           0.000708      0.000065     -0.252001 electrons x Angstroem
 Tr[quadrupol]     -6297.536812

 energy correction for charged system         0.000000 eV
 dipol+quadrupol energy correction           -0.001816 eV
 added-field ion interaction         -0.014212 eV  (added to PSCEN)


 Free energy of the ion-electron system (eV)
  ---------------------------------------------------
  alpha Z        PSCENC =       100.35396976
  Ewald energy   TEWEN  =     37993.23108801
  -Hartree energ DENC   =    -45985.85111957
  -exchange      EXHF   =       541.88648426
  -V(xc)+E(xc)   XCENC  =       585.12117615
  PAW double counting   =     26530.26937354   -26534.74860664
  entropy T*S    EENTRO =        -0.00000000
  eigenvalues    EBANDS =     -3126.98172091
  atomic energy  EATOM  =      9288.12480467
  ---------------------------------------------------
  free energy    TOTEN  =      -608.59455074 eV

  energy without entropy =     -608.59455074  energy(sigma->0) =     -608.59455074
  exchange ACFDT corr.  =        -0.00000000  see jH, gK, PRB 81, 115126


--------------------------------------------------------------------------------------------------------




--------------------------------------- Iteration      1(  17)  ---------------------------------------


    POTLOK:  cpu time    1.3951: real time    1.3952
    SETDIJ:  cpu time    2.0780: real time    2.0780
    TRIAL :  cpu time  506.1540: real time  506.1936
    CORREC:  cpu time    0.0010: real time    0.0013
    CHARGE:  cpu time    1.6442: real time    1.6445
    --------------------------------------------
      LOOP:  cpu time  511.2749: real time  511.3152

 eigenvalue-minimisations  :     0
 total energy-change (2. order) :-0.7045378E-02  (-0.6338174E-02)
 number of electron     239.9999994 magnetization       2.0000001
 augmentation part       11.1040717 magnetization       1.8082125

 DIPCOR: dipole corrections for dipol
 direction  3 min pos     1,
 dipolmoment           0.000704      0.000064     -0.250845 electrons x Angstroem
 Tr[quadrupol]     -6297.536580

 energy correction for charged system         0.000000 eV
 dipol+quadrupol energy correction           -0.001799 eV
 added-field ion interaction         -0.014147 eV  (added to PSCEN)


 Free energy of the ion-electron system (eV)
  ---------------------------------------------------
  alpha Z        PSCENC =       100.35405159
  Ewald energy   TEWEN  =     37993.23108801
  -Hartree energ DENC   =    -45985.86492357
  -exchange      EXHF   =       541.91910378
  -V(xc)+E(xc)   XCENC  =       585.13823978
  PAW double counting   =     26532.34102037   -26536.83739227
  entropy T*S    EENTRO =        -0.00000000
  eigenvalues    EBANDS =     -3127.00758847
  atomic energy  EATOM  =      9288.12480467
  ---------------------------------------------------
  free energy    TOTEN  =      -608.60159612 eV

  energy without entropy =     -608.60159612  energy(sigma->0) =     -608.60159612
  exchange ACFDT corr.  =        -0.00000000  see jH, gK, PRB 81, 115126


--------------------------------------------------------------------------------------------------------




--------------------------------------- Iteration      1(  18)  ---------------------------------------


    POTLOK:  cpu time    1.3970: real time    1.3970
    SETDIJ:  cpu time    2.0894: real time    2.0894
    TRIAL :  cpu time  506.1479: real time  506.2417
    CORREC:  cpu time    0.0011: real time    0.0013
    CHARGE:  cpu time    1.6493: real time    1.6493
    --------------------------------------------
      LOOP:  cpu time  511.2869: real time  511.3810

 eigenvalue-minimisations  :     0
 total energy-change (2. order) :-0.6076872E-02  (-0.5509321E-02)
 number of electron     239.9999994 magnetization       2.0000001
 augmentation part       11.1050232 magnetization       1.8091686

 DIPCOR: dipole corrections for dipol
 direction  3 min pos     1,
 dipolmoment           0.000703      0.000064     -0.250179 electrons x Angstroem
 Tr[quadrupol]     -6297.536215

 energy correction for charged system         0.000000 eV
 dipol+quadrupol energy correction           -0.001790 eV
 added-field ion interaction         -0.014109 eV  (added to PSCEN)


 Free energy of the ion-electron system (eV)
  ---------------------------------------------------
  alpha Z        PSCENC =       100.35409867
  Ewald energy   TEWEN  =     37993.23108801
  -Hartree energ DENC   =    -45985.86290449
  -exchange      EXHF   =       541.94843074
  -V(xc)+E(xc)   XCENC  =       585.15351495
  PAW double counting   =     26534.29698360   -26538.80818394
  entropy T*S    EENTRO =        -0.00000000
  eigenvalues    EBANDS =     -3127.04550519
  atomic energy  EATOM  =      9288.12480467
  ---------------------------------------------------
[...]
  augment    23.12194    21.85382    27.76764    -0.71423    -0.44751     0.94948
  Kinetic  3557.29748  3570.92264  4058.27749     9.04295    -1.25658     2.29314
  Fock     -290.98895  -289.48631  -267.71889     1.32135    -0.08675    -0.80600
  -------------------------------------------------------------------------------------
  Total     -27.13800   -46.25935    -0.19903     2.29399    -0.56008     0.69641
  in kB     -13.68630   -23.32962    -0.10038     1.15691    -0.28246     0.35121
  external pressure =      -12.37 kB  Pullay stress =        0.00 kB


 VOLUME and BASIS-vectors are now :
 -----------------------------------------------------------------------------
  energy-cutoff  :      500.00
  volume of cell :     3176.89
      direct lattice vectors                 reciprocal lattice vectors
    12.697700000  0.000000000  0.000000000     0.078754420 -0.000636556  0.000220998
     0.101231286 12.524290891  0.000000000     0.000000000  0.079844840  0.000020485
    -0.056099471 -0.005125317 19.976720572     0.000000000  0.000000000  0.050058266

  length of vectors
    12.697700000 12.524700000 19.976800000     0.078757303  0.079844842  0.050058266


 FORCES acting on ions:
    Electron-Ion                     Ewald-Force                    Non-Local-Force
 -----------------------------------------------------------------------------------------------
   -.161E+01 -.150E+01 -.679E+01   0.150E+01 0.153E+01 0.676E+01   -.473E-02 -.431E-01 0.181E-01
   0.173E+01 0.780E+00 -.722E+00   -.190E+01 -.838E+00 0.685E+00   0.113E+00 0.983E-01 0.280E-01
   0.883E+01 -.259E+01 -.363E+01   -.874E+01 0.265E+01 0.362E+01   0.326E-01 -.599E-01 0.191E-02
   -.309E+01 -.116E+01 -.883E+01   0.348E+01 0.120E+01 0.886E+01   -.364E+00 0.581E-01 -.303E-01
   -.413E+01 0.577E+01 -.841E+01   0.427E+01 -.606E+01 0.834E+01   -.148E+00 0.217E+00 0.436E-01
   0.108E+02 -.360E+01 -.155E+01   -.114E+02 0.356E+01 0.155E+01   0.427E+00 -.233E-01 0.956E-03
   0.120E+02 -.606E+00 -.267E+01   -.121E+02 0.503E+00 0.261E+01   0.146E+00 0.876E-01 0.530E-01
   -.300E+02 0.241E+02 -.230E+02   0.332E+02 -.276E+02 0.236E+02   -.301E+01 0.339E+01 -.554E+00
   0.656E+01 -.162E+01 0.660E+01   -.664E+01 0.163E+01 -.660E+01   0.748E-01 -.594E-01 0.550E-02
   0.404E+02 -.122E+02 -.576E+00   -.438E+02 0.128E+02 0.517E+00   0.356E+01 -.602E+00 0.941E-01
   0.829E+01 0.526E+01 0.436E+01   -.867E+01 -.534E+01 -.438E+01   0.220E+00 0.141E+00 0.339E-01
   0.365E+02 0.158E+02 0.668E+01   -.395E+02 -.163E+02 -.661E+01   0.324E+01 0.477E+00 -.542E-01
   -.800E+01 -.229E+02 0.218E+01   0.902E+01 0.256E+02 -.214E+01   -.102E+01 -.260E+01 -.403E-01
   0.161E+01 -.807E+01 -.361E+01   -.146E+01 0.853E+01 0.359E+01   -.119E+00 -.419E+00 0.950E-03
   0.366E+00 -.613E+00 -.110E+01   -.414E+00 0.730E+00 0.108E+01   0.103E-01 -.165E+00 0.307E-02
   0.117E+02 -.233E+01 -.704E+00   -.119E+02 0.251E+01 0.677E+00   0.212E+00 -.134E+00 0.126E-01
   0.330E+01 -.449E+01 -.663E+01   -.314E+01 0.471E+01 0.664E+01   -.124E+00 -.252E+00 -.254E-01
   -.520E+01 -.934E+01 0.182E+01   0.522E+01 0.975E+01 -.184E+01   -.664E-01 -.407E+00 0.116E-01
   -.108E+02 -.930E+01 -.936E+01   0.112E+02 0.988E+01 0.929E+01   -.409E+00 -.546E+00 0.631E-01
   -.815E+00 -.677E+01 -.456E+01   0.976E+00 0.707E+01 0.460E+01   -.804E-01 -.275E+00 -.385E-01
   0.165E+01 -.106E+02 0.128E+00   -.196E+01 0.113E+02 -.279E+00   0.337E+00 -.627E+00 0.156E+00
   0.208E+01 -.283E+02 -.186E+02   -.132E+01 0.296E+02 0.184E+02   -.495E+00 -.124E+01 0.209E+00
   -.141E+02 -.249E+02 -.150E+02   0.140E+02 0.260E+02 0.145E+02   -.966E-01 -.102E+01 0.526E+00
   -.726E+01 0.967E+00 0.295E+02   0.963E+01 0.253E+01 -.302E+02   -.226E+01 -.387E+01 0.679E+00
   0.323E+01 -.145E+02 0.459E+01   -.535E+01 0.178E+02 -.433E+01   0.198E+01 -.320E+01 -.255E+00
   -.842E+01 -.283E+01 0.188E+02   0.924E+01 0.421E+01 -.189E+02   -.613E+00 -.112E+01 0.212E-01
   -.513E+01 -.707E+01 0.125E+02   0.515E+01 0.777E+01 -.126E+02   0.541E-01 -.729E+00 0.109E+00
   -.554E+01 -.615E+01 -.368E+01   0.536E+01 0.657E+01 0.367E+01   0.125E+00 -.433E+00 -.306E-02
   -.372E+00 -.830E+01 0.269E+01   0.395E-01 0.891E+01 -.265E+01   0.191E+00 -.611E+00 -.634E-01
   -.277E+01 -.577E+01 0.820E+01   0.274E+01 0.632E+01 -.819E+01   0.369E-01 -.522E+00 -.562E-03
   -.398E+01 -.193E+01 0.431E+01   0.379E+01 0.200E+01 -.433E+01   0.444E-01 -.860E-01 0.114E-01
   -.420E+01 -.975E+01 0.253E+01   0.398E+01 0.102E+02 -.243E+01   0.150E+00 -.409E+00 -.798E-01
   0.597E+01 -.574E+01 0.547E+01   -.591E+01 0.611E+01 -.548E+01   0.804E-01 -.334E+00 0.101E-01
   0.106E+02 -.492E+01 0.384E+01   -.107E+02 0.518E+01 -.388E+01   0.135E+00 -.169E+00 0.431E-01
   0.299E+01 -.652E+01 0.528E+01   -.335E+01 0.660E+01 -.535E+01   0.318E+00 -.128E+00 0.781E-01
   0.123E+02 -.182E+02 -.113E+02   -.141E+02 0.178E+02 0.114E+02   0.152E+01 0.185E-01 -.179E-01
   0.103E+02 -.129E+02 0.333E+01   -.108E+02 0.136E+02 -.344E+01   0.433E+00 -.677E+00 0.911E-01
   0.137E+02 -.435E+01 0.120E+01   -.140E+02 0.449E+01 -.117E+01   0.372E+00 -.183E+00 -.279E-01
   0.746E+01 -.538E-01 0.305E+01   -.787E+01 0.308E+00 -.308E+01   0.263E+00 -.173E+00 0.405E-01
   -.122E+02 0.304E+02 0.114E+02   0.167E+02 -.311E+02 -.115E+02   -.427E+01 0.803E+00 0.200E+00
   0.162E+02 0.117E+02 -.344E+01   -.165E+02 -.126E+02 0.363E+01   0.402E+00 0.102E+01 -.186E+00
   0.104E+01 0.747E+01 0.776E+01   -.915E+00 -.756E+01 -.777E+01   -.205E+00 0.158E+00 0.226E-01
   -.578E+00 0.563E+01 0.109E+02   0.887E+00 -.609E+01 -.109E+02   -.299E+00 0.336E+00 0.935E-02
   -.110E+02 0.225E+01 0.152E+02   0.115E+02 -.222E+01 -.152E+02   -.683E+00 -.677E-02 -.380E-01
   -.755E+01 0.693E+01 0.160E+02   0.818E+01 -.741E+01 -.160E+02   -.589E+00 0.283E+00 0.341E-01
   0.601E+01 0.342E+01 0.702E+01   -.611E+01 -.364E+01 -.703E+01   0.221E+00 0.239E+00 0.789E-02
   -.339E+01 0.382E+01 0.613E+01   0.352E+01 -.383E+01 -.613E+01   -.135E+00 0.443E-01 -.584E-02
   -.625E+01 -.343E+01 0.814E+01   0.627E+01 0.350E+01 -.814E+01   -.431E-01 -.171E+00 0.128E-02
   -.456E+00 -.814E+00 0.101E+02   0.725E+00 0.112E+01 -.101E+02   -.246E+00 -.239E+00 0.181E-01
   0.758E+01 -.283E+01 0.315E+01   -.755E+01 0.281E+01 -.317E+01   0.593E-02 -.504E-01 0.144E-01
   -.695E+02 -.590E+02 -.329E+02   0.739E+02 0.659E+02 0.334E+02   -.465E+01 -.700E+01 -.572E+00
   0.408E+02 -.722E+02 -.448E+02   -.458E+02 0.802E+02 0.457E+02   0.507E+01 -.798E+01 -.931E+00
   -.143E+02 -.434E+02 -.229E+02   0.254E+02 0.610E+02 0.237E+02   -.111E+02 -.168E+02 -.798E+00
   -.889E+01 0.548E+02 0.126E+02   0.207E+02 -.752E+02 -.129E+02   -.115E+02 0.193E+02 0.324E+00
   0.358E+02 0.115E+03 0.227E+02   -.448E+02 -.135E+03 -.245E+02   0.846E+01 0.192E+02 0.164E+01
   0.888E+01 0.658E+02 0.454E+02   -.187E+02 -.808E+02 -.492E+02   0.982E+01 0.145E+02 0.368E+01
   -.746E+02 0.591E+02 0.162E+03   0.699E+02 -.573E+02 -.160E+03   0.355E+01 -.155E+01 -.309E+01
   -.267E+01 0.122E+02 -.238E+03   0.479E+01 -.159E+02 0.233E+03   -.124E+01 0.362E+01 0.609E+01
 -----------------------------------------------------------------------------------------------
   0.227E+01 -.106E+02 -.787E+01   0.242E-12 -.249E-12 0.000E+00   -.213E+01 0.912E+01 0.758E+01
 
 
 POSITION                                       TOTAL-FORCE (eV/Angst)
 -----------------------------------------------------------------------------------
      2.88029     12.49277     10.01882        -0.119203     -0.014755     -0.012286
      0.66377      1.22822      9.99512        -0.056180      0.050671     -0.007065
      1.46946     12.50192      9.99939         0.140623      0.001317     -0.010112
      3.48754      1.20061     10.04572         0.019685      0.106849     -0.003899
      2.78059      2.42821     10.04660        -0.017298     -0.054716     -0.022253
      0.69617      3.73433      9.99579        -0.184799     -0.066487      0.001297
      1.36934      2.46543     10.01194         0.061061     -0.014164     -0.008126
      3.49540      3.65014     10.08337         0.038400      0.071546      0.007568
      0.81873      6.24244      9.94431        -0.007657     -0.052899      0.003671
      1.47870      4.95341      9.98740         0.405231     -0.034551      0.042474
      0.79438      8.74531      9.93792        -0.153286      0.072843      0.011808
      1.55040      7.50772      9.92794         0.390181      0.035880      0.017178
      3.58814      8.77545      9.93459        -0.056501     -0.043567     -0.002375
      2.89555     10.01781      9.97209         0.027094      0.016832     -0.018054
      0.77431     11.25213      9.97436        -0.046357     -0.055832     -0.013399
      1.47787     10.00630      9.96354         0.022081      0.038557     -0.014399
      3.59067     11.25870     10.00064         0.038730     -0.041719     -0.016238
      7.12617     12.51415      9.99076        -0.058309     -0.019225     -0.001053
      4.90185      1.21608     10.05778        -0.029810      0.011281     -0.003246
      5.71210     12.50344     10.01608         0.081794      0.005819     -0.006283
      7.72772      1.23203     10.02235         0.046555      0.032259      0.014538
      7.03092      2.46623     10.11231         0.236688      0.003000      0.006119
      5.59231      2.46664     10.10553        -0.188070      0.074465      0.076200
      7.09727      7.59325      9.87519        -0.004629     -0.601164      0.024514
      5.01459      8.77956      9.91740        -0.041518     -0.004761     -0.010223
      7.81954      8.81645      9.88576         0.170752      0.194976     -0.015927
      7.12031     10.04785      9.91453         0.081707     -0.072806      0.018936
      5.00226     11.26455      9.99052        -0.058489     -0.033903     -0.010794
      5.70130     10.02151      9.94396        -0.126647     -0.033087     -0.022879
      7.82757     11.27730      9.94164         0.011505     -0.001314      0.006003
     11.35565     12.51563      9.96056        -0.151258     -0.020717     -0.003518
      9.14413      1.25480      9.99357        -0.074255      0.036610      0.012807
      9.84379     -0.00046      9.95919         0.151130      0.017289      0.003544
     11.94732      1.24733      9.97484         0.072630      0.072517      0.003245
     11.25534      2.50969      9.97914        -0.032887     -0.061008      0.006970
      9.10076      3.77214     10.06487        -0.183260     -0.304922      0.024717
      9.83132      2.51759     10.00184         0.007438      0.012933     -0.015007
     11.97165      3.76142      9.98312         0.148623     -0.049295     -0.000917
     11.27904      5.02953      9.97052        -0.128909      0.068043      0.013667
      9.15531      6.31441      9.94206        -0.010007      0.141183      0.026187
      9.83296      5.04155     10.00071         0.129060      0.185793     -0.011536
     12.06150      6.25292      9.93879        -0.097284      0.082136      0.010085
     11.35392      7.49983      9.91740        -0.006756     -0.107517      0.011217
      9.23731      8.78284      9.89529        -0.177230      0.022559      0.018520
      9.92172      7.52129      9.90506         0.009280     -0.182562      0.025498
     12.06814      8.74688      9.92618         0.142429      0.027059     -0.001989
     11.36755     10.00667      9.93080        -0.022192      0.040230     -0.006938
      9.24653     11.27268      9.93496        -0.034699     -0.106411     -0.003358
      9.94722     10.02271      9.91545         0.016489      0.051450      0.005137
     12.05778     11.25833      9.95423         0.048030     -0.078549     -0.005526
      4.90497      3.71318     10.14869        -0.504552     -0.445775     -0.084530
      7.68836      3.71948     10.19318         0.380048     -0.424413     -0.051546
      2.83745      4.86101     10.02731        -0.969749     -0.663109      0.014985
      2.92899      7.56315      9.90886        -0.679399      0.622015      0.021875
      7.75804      6.39924      9.94225         0.155169      0.949304      0.010230
      5.70405      7.54405      9.84336         0.885168      0.786824      0.283775
      4.36941      6.05867      9.75016        -0.565306      0.057975     -0.494537
      6.33516      5.20496     10.79870         0.868917     -0.300984      0.155251
 -----------------------------------------------------------------------------------
    total drift:                                0.003991      0.005502      0.003926


--------------------------------------------------------------------------------------------------------



  FREE ENERGIE OF THE ION-ELECTRON SYSTEM (eV)
  ---------------------------------------------------
  free  energy   TOTEN  =      -608.67737922 eV

  energy  without entropy=     -608.67737922  energy(sigma->0) =     -608.67737922
 


--------------------------------------------------------------------------------------------------------


    POTLOK:  cpu time    3.4593: real time    3.4594


--------------------------------------------------------------------------------------------------------


 stress matrix after NEB project (eV)
    -27.13800      2.29401      0.69641
      2.29399    -46.25935     -0.56120
      0.69670     -0.56008     -0.19903
  FORCES: max atom, RMS     1.217843    0.380066
  FORCE total and by dimension    2.894495    0.969749
  Stress total and by dimension   53.745345   46.259351
 writing wavefunctions
     LOOP+:  cpu time48151.6069: real time48164.2176
    4ORBIT:  cpu time    0.0000: real time    0.0000
 


 total charge     
 
# of ion       s       p       d       tot
------------------------------------------
    1        0.871   1.789   0.000   2.660
    2        0.867   1.780   0.000   2.648
    3        0.867   1.775   0.000   2.642
    4        0.873   1.788   0.000   2.661
    5        0.874   1.806   0.000   2.680
    6        0.862   1.764   0.000   2.626
    7        0.870   1.772   0.000   2.641
    8        0.874   1.744   0.000   2.617
    9        0.846   1.744   0.000   2.590
   10        0.858   1.711   0.000   2.570
   11        0.863   1.761   0.000   2.624
   12        0.852   1.688   0.000   2.540
   13        0.861   1.752   0.000   2.613
   14        0.870   1.788   0.000   2.658
   15        0.867   1.780   0.000   2.647
   16        0.868   1.766   0.000   2.633
   17        0.870   1.790   0.000   2.659
   18        0.868   1.788   0.000   2.657
   19        0.869   1.784   0.000   2.654
   20        0.870   1.776   0.000   2.646
   21        0.872   1.781   0.000   2.653
   22        0.874   1.767   0.000   2.641
   23        0.873   1.745   0.000   2.618
   24        0.858   1.707   0.000   2.565
   25        0.856   1.736   0.000   2.592
   26        0.871   1.802   0.000   2.673
   27        0.871   1.788   0.000   2.660
   28        0.868   1.785   0.000   2.653
   29        0.868   1.786   0.000   2.654
   30        0.870   1.786   0.000   2.657
   31        0.866   1.771   0.000   2.637
   32        0.865   1.766   0.000   2.631
   33        0.868   1.770   0.000   2.638
   34        0.866   1.764   0.000   2.631
   35        0.863   1.756   0.000   2.619
   36        0.857   1.725   0.000   2.582
   37        0.863   1.746   0.000   2.609
   38        0.862   1.749   0.000   2.611
   39        0.855   1.732   0.000   2.587
   40        0.850   1.717   0.000   2.566
   41        0.854   1.725   0.000   2.579
   42        0.856   1.727   0.000   2.583
   43        0.860   1.762   0.000   2.622
   44        0.867   1.766   0.000   2.634
   45        0.863   1.764   0.000   2.628
   46        0.863   1.753   0.000   2.617
   47        0.864   1.768   0.000   2.632
   48        0.867   1.767   0.000   2.634
   49        0.866   1.773   0.000   2.639
   50        0.867   1.767   0.000   2.634
   51        0.869   1.699   0.000   2.568
   52        0.880   1.676   0.000   2.556
   53        1.241   2.697   0.000   3.938
   54        1.234   2.663   0.000   3.897
   55        1.235   2.689   0.000   3.924
   56        1.219   2.661   0.000   3.879
   57        0.411   0.447   6.137   6.994
   58        0.497   0.575   2.579   3.651
--------------------------------------------------
tot         50.832 103.201   8.716 162.749
 


 magnetization (x)
 
# of ion       s       p       d       tot
------------------------------------------
    1       -0.000  -0.003   0.000  -0.003
    2       -0.000  -0.002   0.000  -0.002
    3        0.000   0.001   0.000   0.001
    4        0.000  -0.001   0.000  -0.001
    5        0.000  -0.001   0.000  -0.001
    6        0.000  -0.004   0.000  -0.004
    7        0.000   0.004   0.000   0.005
    8        0.002   0.002   0.000   0.004
    9        0.000   0.003   0.000   0.003
   10        0.001   0.006   0.000   0.007
   11        0.000  -0.003   0.000  -0.002
   12        0.001   0.004   0.000   0.005
   13       -0.000   0.003   0.000   0.003
   14        0.000  -0.001   0.000  -0.001
   15       -0.000  -0.002   0.000  -0.003
   16        0.000   0.000   0.000   0.000
   17        0.000   0.002   0.000   0.003
   18       -0.000  -0.003   0.000  -0.003
   19        0.000   0.001   0.000   0.001
   20        0.000   0.003   0.000   0.004
   21        0.001   0.006   0.000   0.006
   22       -0.001  -0.008   0.000  -0.009
   23        0.001   0.001   0.000   0.002
   24       -0.000  -0.009   0.000  -0.010
   25       -0.001  -0.007   0.000  -0.009
   26        0.001   0.006   0.000   0.007
   27       -0.001  -0.008   0.000  -0.009
   28       -0.000  -0.003   0.000  -0.003
   29        0.000   0.004   0.000   0.004
   30        0.000   0.003   0.000   0.003
   31       -0.000  -0.005   0.000  -0.005
   32       -0.001  -0.009   0.000  -0.009
   33        0.000   0.004   0.000   0.005
   34        0.000   0.004   0.000   0.004
   35       -0.000  -0.003   0.000  -0.003
   36       -0.001  -0.010   0.000  -0.011
   37        0.001   0.005   0.000   0.006
   38        0.000   0.003   0.000   0.003
   39       -0.000  -0.003   0.000  -0.004
   40       -0.000  -0.004   0.000  -0.005
   41        0.001   0.009   0.000   0.009
   42        0.000   0.003   0.000   0.003
   43       -0.000  -0.004   0.000  -0.005
   44       -0.000  -0.004   0.000  -0.004
   45        0.000   0.003   0.000   0.004
   46        0.000   0.004   0.000   0.004
   47       -0.000  -0.003   0.000  -0.004
   48       -0.000  -0.006   0.000  -0.006
   49        0.000   0.004   0.000   0.005
   50        0.000   0.003   0.000   0.003
   51        0.013   0.032   0.000   0.045
   52        0.006   0.033   0.000   0.039
   53        0.007   0.016   0.000   0.023
   54        0.011   0.028   0.000   0.039
   55        0.004   0.034   0.000   0.038
   56       -0.002  -0.011   0.000  -0.013
   57        0.003  -0.010   3.294   3.288
   58       -0.055  -0.034  -1.301  -1.390
--------------------------------------------------
tot         -0.009   0.073   1.993   2.058
 

 total amount of memory used by VASP MPI-rank0   191972. kBytes
=======================================================================

   base      :      30000. kBytes
   nonl-proj :       5326. kBytes
   fftplans  :      14250. kBytes
   grid      :      36827. kBytes
   one-center:         62. kBytes
   HF        :         23. kBytes
   nonlr-proj:      28993. kBytes
   wavefun   :      76491. kBytes
 
  
  
 General timing and accounting informations for this job:
 ========================================================
  
                  Total CPU time used (sec):    48242.918
                            User time (sec):    48178.896
                          System time (sec):       64.022
                         Elapsed time (sec):    48258.962
  
                   Maximum memory used (kb):      432740.
                   Average memory used (kb):           0.
  
                          Minor page faults:       350406
                          Major page faults:            0
                 Voluntary context switches:         1111
