 vasp.5.4.4.18Apr17-6-g9f103f2a35 (build Feb 25 2019 10:51:38) complex          
  
 executed on             LinuxIFC date 2021.06.17  13:05:40
 running on   48 total cores
 distrk:  each k-point on   24 cores,    2 groups
 distr:  one band on NCORES_PER_BAND=  24 cores,    1 groups


--------------------------------------------------------------------------------------------------------


 INCAR:
 POTCAR:    PAW_PBE C 08Apr2002                   
 POTCAR:    PAW_PBE N 08Apr2002                   
 POTCAR:    PAW_PBE Fe 06Sep2000                  
 POTCAR:    PAW_PBE Mn 06Sep2000                  

 ----------------------------------------------------------------------------- 
|                                                                             |
|           W    W    AA    RRRRR   N    N  II  N    N   GGGG   !!!           |
|           W    W   A  A   R    R  NN   N  II  NN   N  G    G  !!!           |
|           W    W  A    A  R    R  N N  N  II  N N  N  G       !!!           |
|           W WW W  AAAAAA  RRRRR   N  N N  II  N  N N  G  GGG   !            |
|           WW  WW  A    A  R   R   N   NN  II  N   NN  G    G                |
|           W    W  A    A  R    R  N    N  II  N    N   GGGG   !!!           |
|                                                                             |
|      For optimal performance we recommend to set                            |
|        NCORE= 4 - approx SQRT( number of cores)                             |
|      NCORE specifies how many cores store one orbital (NPAR=cpu/NCORE).     |
|      This setting can  greatly improve the performance of VASP for DFT.     |
|      The default,   NCORE=1            might be grossly inefficient         |
|      on modern multi-core architectures or massively parallel machines.     |
|      Do your own testing !!!!                                               |
|      Unfortunately you need to use the default for GW and RPA calculations. |
|      (for HF NCORE is supported but not extensively tested yet)             |
|                                                                             |
 ----------------------------------------------------------------------------- 


 ----------------------------------------------------------------------------- 
|                                                                             |
|           W    W    AA    RRRRR   N    N  II  N    N   GGGG   !!!           |
|           W    W   A  A   R    R  NN   N  II  NN   N  G    G  !!!           |
|           W    W  A    A  R    R  N N  N  II  N N  N  G       !!!           |
|           W WW W  AAAAAA  RRRRR   N  N N  II  N  N N  G  GGG   !            |
|           WW  WW  A    A  R   R   N   NN  II  N   NN  G    G                |
|           W    W  A    A  R    R  N    N  II  N    N   GGGG   !!!           |
|                                                                             |
|      You have enabled k-point parallelism (KPAR>1).                         |
|      This developmental code was originally  written by Paul Kent at ORNL,  |
|      and carefully double checked in Vienna.                                |
|      GW as well as linear response parallelism added by Martijn Marsman     |
|      and Georg Kresse.                                                      |
|      Carefully verify results versus KPAR=1.                                |
|      Report problems to Paul Kent and Vienna.                               |
|                                                                             |
 ----------------------------------------------------------------------------- 

 POTCAR:    PAW_PBE C 08Apr2002                   
   VRHFIN =C: s2p2                                                              
   LEXCH  = PE                                                                  
   EATOM  =   147.1560 eV,   10.8157 Ry                                         
                                                                                
   TITEL  = PAW_PBE C 08Apr2002                                                 
   LULTRA =        F    use ultrasoft PP ?                                      
   IUNSCR =        1    unscreen: 0-lin 1-nonlin 2-no                           
   RPACOR =    1.200    partial core radius                                     
   POMASS =   12.011; ZVAL   =    4.000    mass and valenz                      
   RCORE  =    1.500    outmost cutoff radius                                   
   RWIGS  =    1.630; RWIGS  =    0.863    wigner-seitz radius (au A)           
   ENMAX  =  400.000; ENMIN  =  300.000 eV                                      
   ICORE  =        2    local potential                                         
   LCOR   =        T    correct aug charges                                     
   LPAW   =        T    paw PP                                                  
   EAUG   =  644.873                                                            
   DEXC   =    0.000                                                            
   RMAX   =    1.529    core radius for proj-oper                               
   RAUG   =    1.300    factor for augmentation sphere                          
   RDEP   =    1.501    radius for radial grids                                 
   RDEPT  =    1.300    core radius for aug-charge                              
                                                                                
   Atomic configuration                                                         
    4 entries                                                                   
     n  l   j            E        occ.                                          
     1  0  0.50      -273.3789   2.0000                                         
     2  0  0.50       -13.7508   2.0000                                         
     2  1  0.50        -5.2854   2.0000                                         
     3  2  1.50        -5.4423   0.0000                                         
   Description                                                                  
     l       E           TYP  RCUT    TYP  RCUT                                 
     0    -13.7508458     23  1.200                                             
     0     -8.2022199     23  1.200                                             
     1     -5.2854383     23  1.500                                             
     1     34.0145650     23  1.500                                             
     2     -5.4423304      7  1.500                                             
  local pseudopotential read in
  partial core-charges read in
  partial kinetic energy density read in
  atomic valenz-charges read in
  non local Contribution for L=           0  read in
    real space projection operators read in
  non local Contribution for L=           0  read in
    real space projection operators read in
  non local Contribution for L=           1  read in
    real space projection operators read in
  non local Contribution for L=           1  read in
    real space projection operators read in
    PAW grid and wavefunctions read in
 
   number of l-projection  operators is LMAX  =           4
   number of lm-projection operators is LMMAX =           8
 
 POTCAR:    PAW_PBE N 08Apr2002                   
   VRHFIN =N: s2p3                                                              
   LEXCH  = PE                                                                  
   EATOM  =   264.5486 eV,   19.4438 Ry                                         
                                                                                
   TITEL  = PAW_PBE N 08Apr2002                                                 
   LULTRA =        F    use ultrasoft PP ?                                      
   IUNSCR =        1    unscreen: 0-lin 1-nonlin 2-no                           
   RPACOR =    1.200    partial core radius                                     
   POMASS =   14.001; ZVAL   =    5.000    mass and valenz                      
   RCORE  =    1.500    outmost cutoff radius                                   
   RWIGS  =    1.400; RWIGS  =    0.741    wigner-seitz radius (au A)           
   ENMAX  =  400.000; ENMIN  =  300.000 eV                                      
   ICORE  =        2    local potential                                         
   LCOR   =        T    correct aug charges                                     
   LPAW   =        T    paw PP                                                  
   EAUG   =  627.112                                                            
   DEXC   =    0.000                                                            
   RMAX   =    1.529    core radius for proj-oper                               
   RAUG   =    1.300    factor for augmentation sphere                          
   RDEP   =    1.514    radius for radial grids                                 
   RDEPT  =    1.338    core radius for aug-charge                              
                                                                                
   Atomic configuration                                                         
    4 entries                                                                   
     n  l   j            E        occ.                                          
     1  0  0.50      -384.7179   2.0000                                         
     2  0  0.50       -18.5828   2.0000                                         
     2  1  0.50        -7.0898   3.0000                                         
     3  2  1.50        -6.8029   0.0000                                         
   Description                                                                  
     l       E           TYP  RCUT    TYP  RCUT                                 
     0    -18.5828119     23  1.200                                             
     0    -13.5018863     23  1.200                                             
     1     -7.0897853     23  1.500                                             
     1      9.5240782     23  1.500                                             
     2     -6.8029130      7  1.500                                             
  local pseudopotential read in
  partial core-charges read in
  partial kinetic energy density read in
  atomic valenz-charges read in
  non local Contribution for L=           0  read in
    real space projection operators read in
  non local Contribution for L=           0  read in
    real space projection operators read in
  non local Contribution for L=           1  read in
    real space projection operators read in
  non local Contribution for L=           1  read in
    real space projection operators read in
    PAW grid and wavefunctions read in
 
   number of l-projection  operators is LMAX  =           4
   number of lm-projection operators is LMMAX =           8
 
 POTCAR:    PAW_PBE Fe 06Sep2000                  
   VRHFIN =Fe:  d7 s1                                                           
   LEXCH  = PE                                                                  
   EATOM  =   594.3153 eV,   43.6809 Ry                                         
                                                                                
   TITEL  = PAW_PBE Fe 06Sep2000                                                
   LULTRA =        F    use ultrasoft PP ?                                      
   IUNSCR =        1    unscreen: 0-lin 1-nonlin 2-no                           
   RPACOR =    2.000    partial core radius                                     
   POMASS =   55.847; ZVAL   =    8.000    mass and valenz                      
   RCORE  =    2.300    outmost cutoff radius                                   
   RWIGS  =    2.460; RWIGS  =    1.302    wigner-seitz radius (au A)           
   ENMAX  =  267.882; ENMIN  =  200.911 eV                                      
   RCLOC  =    1.701    cutoff for local pot                                    
   LCOR   =        T    correct aug charges                                     
   LPAW   =        T    paw PP                                                  
   EAUG   =  511.368                                                            
   DEXC   =    0.000                                                            
   RMAX   =    2.356    core radius for proj-oper                               
   RAUG   =    1.300    factor for augmentation sphere                          
   RDEP   =    2.442    radius for radial grids                                 
   RDEPT  =    1.890    core radius for aug-charge                              
                                                                                
   Atomic configuration                                                         
    9 entries                                                                   
     n  l   j            E        occ.                                          
     1  0  0.50     -6993.8440   2.0000                                         
     2  0  0.50      -814.6047   2.0000                                         
     2  1  1.50      -693.3689   6.0000                                         
     3  0  0.50       -89.4732   2.0000                                         
     3  1  1.50       -55.6373   6.0000                                         
     3  2  2.50        -3.8151   7.0000                                         
     4  0  0.50        -4.2551   1.0000                                         
     4  1  1.50        -3.4015   0.0000                                         
     4  3  2.50        -1.3606   0.0000                                         
   Description                                                                  
     l       E           TYP  RCUT    TYP  RCUT                                 
     2     -3.8151135     23  2.300                                             
     2     -5.1756961     23  2.300                                             
     0     -4.2550963     23  2.300                                             
     0      7.2035603     23  2.300                                             
     1     -2.7211652     23  2.300                                             
     1     18.4316424     23  2.300                                             
  local pseudopotential read in
  partial core-charges read in
  partial kinetic energy density read in
  atomic valenz-charges read in
  non local Contribution for L=           2  read in
    real space projection operators read in
  non local Contribution for L=           2  read in
    real space projection operators read in
  non local Contribution for L=           0  read in
    real space projection operators read in
  non local Contribution for L=           0  read in
    real space projection operators read in
  non local Contribution for L=           1  read in
    real space projection operators read in
  non local Contribution for L=           1  read in
    real space projection operators read in
    PAW grid and wavefunctions read in
 
   number of l-projection  operators is LMAX  =           6
   number of lm-projection operators is LMMAX =          18
 
 POTCAR:    PAW_PBE Mn 06Sep2000                  
   VRHFIN =Mn: d6 s1                                                            
   LEXCH  = PE                                                                  
   EATOM  =   416.7541 eV,   30.6306 Ry                                         
                                                                                
   TITEL  = PAW_PBE Mn 06Sep2000                                                
   LULTRA =        F    use ultrasoft PP ?                                      
   IUNSCR =        1    unscreen: 0-lin 1-nonlin 2-no                           
   RPACOR =    2.000    partial core radius                                     
   POMASS =   54.938; ZVAL   =    7.000    mass and valenz                      
   RCORE  =    2.300    outmost cutoff radius                                   
   RWIGS  =    2.500; RWIGS  =    1.323    wigner-seitz radius (au A)           
   ENMAX  =  269.864; ENMIN  =  202.398 eV                                      
   RCLOC  =    1.725    cutoff for local pot                                    
   LCOR   =        T    correct aug charges                                     
   LPAW   =        T    paw PP                                                  
   EAUG   =  500.711                                                            
   DEXC   =    0.000                                                            
   RMAX   =    2.343    core radius for proj-oper                               
   RAUG   =    1.300    factor for augmentation sphere                          
   RDEP   =    2.338    radius for radial grids                                 
   RDEPT  =    1.911    core radius for aug-charge                              
                                                                                
   Atomic configuration                                                         
    9 entries                                                                   
     n  l   j            E        occ.                                          
     1  0  0.50     -6424.8288   2.0000                                         
     2  0  0.50      -739.1154   2.0000                                         
     2  1  1.50      -625.3949   6.0000                                         
     3  0  0.50       -81.6100   2.0000                                         
     3  1  1.50       -50.4667   6.0000                                         
     3  2  2.50        -3.3745   6.0000                                         
     4  0  0.50        -4.1331   1.0000                                         
     4  1  0.50        -4.0817   0.0000                                         
     4  3  2.50        -1.3606   0.0000                                         
   Description                                                                  
     l       E           TYP  RCUT    TYP  RCUT                                 
     2     -3.3744664     23  2.300                                             
     2     -4.7350490     23  2.300                                             
     0     -4.1331408     23  2.300                                             
     0      7.6656614     23  2.300                                             
     1     -2.7211652     23  2.300                                             
     1     20.4087390     23  2.300                                             
  local pseudopotential read in
  partial core-charges read in
  partial kinetic energy density read in
  atomic valenz-charges read in
  non local Contribution for L=           2  read in
    real space projection operators read in
  non local Contribution for L=           2  read in
    real space projection operators read in
  non local Contribution for L=           0  read in
    real space projection operators read in
  non local Contribution for L=           0  read in
    real space projection operators read in
  non local Contribution for L=           1  read in
    real space projection operators read in
  non local Contribution for L=           1  read in
    real space projection operators read in
    PAW grid and wavefunctions read in
 
   number of l-projection  operators is LMAX  =           6
   number of lm-projection operators is LMMAX =          18
 

 ----------------------------------------------------------------------------- 
|                                                                             |
|  ADVICE TO THIS USER RUNNING 'VASP/VAMP'   (HEAR YOUR MASTER'S VOICE ...):  |
|                                                                             |
|      You have a (more or less) 'large supercell' and for larger cells       |
|      it might be more efficient to use real space projection opertators     |
|      So try LREAL= Auto  in the INCAR   file.                               |
|      Mind:          For very  accurate calculation you might also keep the  |
|      reciprocal projection scheme          (i.e. LREAL=.FALSE.)             |
|                                                                             |
 ----------------------------------------------------------------------------- 

  PAW_PBE C 08Apr2002                   :
 energy of atom  1       EATOM= -147.1560
 kinetic energy error for atom=    0.0076 (will be added to EATOM!!)
  PAW_PBE N 08Apr2002                   :
 energy of atom  2       EATOM= -264.5486
 kinetic energy error for atom=    0.0138 (will be added to EATOM!!)
  PAW_PBE Fe 06Sep2000                  :
 energy of atom  3       EATOM= -594.3153
 kinetic energy error for atom=    0.0026 (will be added to EATOM!!)
  PAW_PBE Mn 06Sep2000                  :
 energy of atom  4       EATOM= -416.7541
 kinetic energy error for atom=    0.0024 (will be added to EATOM!!)
 
 
 POSCAR:  C  N Fe Mn                             
  positions in cartesian coordinates
  No initial velocities read in
 exchange correlation table for  LEXCH =        8
   RHO(1)=    0.500       N(1)  =     2000
   RHO(2)=  100.500       N(2)  =     4000

 VTST: version 3.2, (02/03/18)

 CHAIN: initializing optimizer
 
 OPT: Using VASP Conjugate-Gradient optimizer
 CHAIN: Read ICHAIN            0
 
 POSCAR:  C  N Fe Mn                             
  positions in cartesian coordinates
  No initial velocities read in
 


--------------------------------------------------------------------------------------------------------


 ion  position               nearest neighbor table
   1  0.222  0.001  0.501-   3 1.42   4 1.43  19 1.43
   2  0.055  0.102  0.501-   3 1.43   7 1.43  33 1.43
   3  0.110  0.001  0.500-  17 1.42   1 1.42   2 1.43
   4  0.277  0.101  0.500-  21 1.42   1 1.43   5 1.43
   5  0.224  0.203  0.500-   4 1.43   7 1.44   8 1.44
   6  0.056  0.302  0.500-   7 1.42  11 1.43  37 1.44
   7  0.112  0.202  0.501-   6 1.42   2 1.43   5 1.44
   8  0.283  0.303  0.498-  50 1.38   5 1.44   9 1.45
   9  0.227  0.405  0.499-  49 1.36  11 1.45   8 1.45
  10  0.056  0.501  0.500-  11 1.42  14 1.42  40 1.44
  11  0.113  0.402  0.500-  10 1.42   6 1.43   9 1.45
  12  0.226  0.596  0.500-  49 1.36  14 1.44  15 1.46
  13  0.055  0.700  0.500-  18 1.42  14 1.43  44 1.43
  14  0.113  0.600  0.500-  10 1.42  13 1.43  12 1.44
  15  0.283  0.699  0.502-  52 1.37  16 1.44  12 1.46
  16  0.224  0.799  0.501-  19 1.43  18 1.43  15 1.44
  17  0.055  0.900  0.500-   3 1.42  48 1.43  18 1.43
  18  0.111  0.799  0.500-  13 1.42  17 1.43  16 1.43
  19  0.277  0.900  0.501-  27 1.42  16 1.43   1 1.43
  20  0.555  0.000  0.501-  22 1.41  23 1.42  29 1.42
  21  0.389  0.101  0.500-   4 1.42  25 1.42  22 1.42
  22  0.444  0.000  0.501-  20 1.41  21 1.42  27 1.42
  23  0.610  0.101  0.500-  31 1.42  24 1.42  20 1.42
  24  0.556  0.202  0.499-  51 1.38  23 1.42  25 1.44
  25  0.443  0.202  0.499-  50 1.38  21 1.42  24 1.44
  26  0.556  0.798  0.503-  53 1.37  29 1.43  28 1.45
  27  0.389  0.900  0.502-  19 1.42  22 1.42  28 1.43
  28  0.442  0.798  0.503-  52 1.37  27 1.43  26 1.45
  29  0.610  0.900  0.502-  46 1.42  20 1.42  26 1.43
  30  0.888  0.001  0.500-  48 1.42  32 1.42  33 1.43
  31  0.721  0.101  0.500-  23 1.42  32 1.43  36 1.43
  32  0.777  0.001  0.501-  30 1.42  31 1.43  46 1.43
  33  0.943  0.102  0.501-  30 1.43  34 1.43   2 1.43
  34  0.887  0.202  0.501-  37 1.42  33 1.43  36 1.44
  35  0.715  0.303  0.499-  51 1.38  36 1.44  39 1.45
  36  0.774  0.203  0.500-  31 1.43  34 1.44  35 1.44
  37  0.943  0.302  0.500-  34 1.42  38 1.43   6 1.44
  38  0.885  0.402  0.500-  40 1.42  37 1.43  39 1.45
  39  0.772  0.405  0.499-  54 1.36  38 1.45  35 1.45
  40  0.943  0.501  0.500-  38 1.42  41 1.42  10 1.44
  41  0.886  0.600  0.500-  40 1.42  44 1.43  43 1.44
  42  0.716  0.699  0.502-  53 1.37  47 1.44  43 1.46
  43  0.772  0.596  0.500-  54 1.36  41 1.44  42 1.46
  44  0.943  0.700  0.500-  45 1.42  41 1.43  13 1.43
  45  0.887  0.799  0.500-  44 1.42  48 1.43  47 1.43
  46  0.721  0.900  0.501-  29 1.42  47 1.43  32 1.43
  47  0.775  0.799  0.501-  46 1.43  45 1.43  42 1.44
  48  0.943  0.900  0.500-  30 1.42  17 1.43  45 1.43
  49  0.280  0.501  0.499-   9 1.36  12 1.36
  50  0.392  0.301  0.496-  25 1.38   8 1.38  55 1.94
  51  0.607  0.301  0.496-  24 1.38  35 1.38  55 1.94
  52  0.391  0.700  0.504-  28 1.37  15 1.37  56 2.13
  53  0.608  0.700  0.504-  26 1.37  42 1.37  56 2.13
  54  0.718  0.501  0.499-  39 1.36  43 1.36
  55  0.499  0.405  0.472-  51 1.94  50 1.94  56 2.20
  56  0.499  0.570  0.514-  53 2.13  52 2.13  55 2.20
 
  LATTYP: Found a triclinic cell.
 ALAT       =    26.9083162709
 B/A-ratio  =     0.4735524836
 C/A-ratio  =     0.4576503366
 COS(alpha) =     0.0000157080
 COS(beta)  =     0.4580937438
 COS(gamma) =     0.4733653249
  
  Lattice vectors:
  
 A1 = ( -12.7374638738, -12.3263312631,  20.2453959257)
 A2 = ( -12.7425000000,   0.0000000000,   0.0000000000)
 A3 = (  -0.0001934373, -12.3145999985,   0.0000000000)


Analysis of symmetry for initial positions (statically):
=====================================================================
 Subroutine PRICEL returns:
 Original cell was already a primitive cell.
 

 Routine SETGRP: Setting up the symmetry group for a 
 triclinic supercell.


 Subroutine GETGRP returns: Found  1 space group operations
 (whereof  1 operations were pure point group operations)
 out of a pool of  2 trial point group operations.


The static configuration has the point symmetry C_1 .


Analysis of symmetry for dynamics (positions and initial velocities):
=====================================================================
 Subroutine PRICEL returns:
 Original cell was already a primitive cell.
 

 Routine SETGRP: Setting up the symmetry group for a 
 triclinic supercell.


 Subroutine GETGRP returns: Found  1 space group operations
 (whereof  1 operations were pure point group operations)
 out of a pool of  2 trial point group operations.


The dynamic configuration has the point symmetry C_1 .


Analysis of structural, dynamic, and magnetic symmetry:
=====================================================================
 Subroutine PRICEL returns:
 Original cell was already a primitive cell.
 

 Routine SETGRP: Setting up the symmetry group for a 
 triclinic supercell.


 Subroutine GETGRP returns: Found  1 space group operations
 (whereof  1 operations were pure point group operations)
 out of a pool of  2 trial point group operations.


The magnetic configuration has the point symmetry C_1 .


 Subroutine INISYM returns: Found  1 space group operations
 (whereof  1 operations are pure point group operations),
 and found     1 'primitive' translations

 
 
 KPOINTS: KPOINTS created by Atomic Simulation Env

Automatic generation of k-mesh.
Space group operators:
 irot       det(A)        alpha          n_x          n_y          n_z        tau_x        tau_y        tau_z
    1     1.000000     0.000000     1.000000     0.000000     0.000000     0.000000     0.000000     0.000000
 
 Subroutine IBZKPT returns following result:
 ===========================================
 
 Found      2 irreducible k-points:
 
 Following reciprocal coordinates:
            Coordinates               Weight
  0.250000  0.250000  0.000000      2.000000
 -0.250000  0.250000  0.000000      2.000000
 
 Following cartesian coordinates:
            Coordinates               Weight
  0.019619  0.020301  0.000007      2.000000
 -0.019619  0.020301  0.000017      2.000000
 
 
 Subroutine IBZKPT_HF returns following result:
 ==============================================
 
 Found      4 k-points in 1st BZ
 the following      4 k-points will be used (e.g. in the exchange kernel)
 Following reciprocal coordinates:   # in IRBZ
  0.250000  0.250000  0.000000    0.25000000   1 t-inv F
 -0.250000  0.250000  0.000000    0.25000000   2 t-inv F
 -0.250000 -0.250000  0.000000    0.25000000   1 t-inv T
  0.250000 -0.250000 -0.000000    0.25000000   2 t-inv T


--------------------------------------------------------------------------------------------------------




 Dimension of arrays:
   k-points           NKPTS =      2   k-points in BZ     NKDIM =      4   number of bands    NBANDS=    151
   number of dos      NEDOS =    301   number of ions     NIONS =     56
   non local maximal  LDIM  =      6   non local SUM 2l+1 LMDIM =     18
   total plane-waves  NPLWV = ******
   max r-space proj   IRMAX =      1   max aug-charges    IRDMAX=  15196
   dimension x,y,z NGX =    96 NGY =   90 NGZ =  150
   dimension x,y,z NGXF=   192 NGYF=  180 NGZF=  300
   support grid    NGXF=   192 NGYF=  180 NGZF=  300
   ions per type =              48   6   1   1
   NGX,Y,Z   is equivalent  to a cutoff of  12.52, 12.15, 12.32 a.u.
   NGXF,Y,Z  is equivalent  to a cutoff of  25.05, 24.30, 24.63 a.u.

 SYSTEM =  unknown system                          
 POSCAR =   C  N Fe Mn                             

 Startparameter for this run:
   NWRITE =      2    write-flag & timer
   PREC   = accura    normal or accurate (medium, high low for compatibility)
   ISTART =      1    job   : 0-new  1-cont  2-samecut
   ICHARG =      0    charge: 1-file 2-atom 10-const
   ISPIN  =      2    spin polarized calculation?
   LNONCOLLINEAR =      F non collinear calculations
   LSORBIT =      F    spin-orbit coupling
   INIWAV =      1    electr: 0-lowe 1-rand  2-diag
   LASPH  =      T    aspherical Exc in radial PAW
   METAGGA=      F    non-selfconsistent MetaGGA calc.

 Electronic Relaxation 1
   ENCUT  =  500.0 eV  36.75 Ry    6.06 a.u.  23.23 22.45 36.91*2*pi/ulx,y,z
   ENINI  =  500.0     initial cutoff
   ENAUG  =  644.9 eV  augmentation charge cutoff
   NELM   =    250;   NELMIN=  2; NELMDL=  0     # of ELM steps 
   EDIFF  = 0.1E-03   stopping-criterion for ELM
   LREAL  =      F    real-space projection
   NLSPLINE    = F    spline interpolate recip. space projectors
   LCOMPAT=      F    compatible to vasp.4.4
   GGA_COMPAT  = T    GGA compatible to vasp.4.4-vasp.4.6
   LMAXPAW     = -100 max onsite density
   LMAXMIX     =    2 max onsite mixed and CHGCAR
   VOSKOWN=      0    Vosko Wilk Nusair interpolation
   ROPT   =    0.00000   0.00000   0.00000   0.00000
 Ionic relaxation
   EDIFFG = -.3E-01   stopping-criterion for IOM
   NSW    =      0    number of steps for IOM
   NBLOCK =      1;   KBLOCK =      1    inner block; outer block 
   IBRION =     -1    ionic relax: 0-MD 1-quasi-New 2-CG
   NFREE  =      1    steps in history (QN), initial steepest desc. (CG)
   ISIF   =      2    stress and relaxation
   IWAVPR =     10    prediction:  0-non 1-charg 2-wave 3-comb
   ISYM   =      3    0-nonsym 1-usesym 2-fastsym
   LCORR  =      T    Harris-Foulkes like correction to forces

   POTIM  = 0.5000    time-step for ionic-motion
   TEIN   =    0.0    initial temperature
   TEBEG  =    0.0;   TEEND  =   0.0 temperature during run
   SMASS  =  -3.00    Nose mass-parameter (am)
   estimated Nose-frequenzy (Omega)   =  0.10E-29 period in steps =****** mass=  -0.371E-26a.u.
   SCALEE = 1.0000    scale energy and forces
   NPACO  =    256;   APACO  = 16.0  distance and # of slots for P.C.
   PSTRESS=    0.0 pullay stress

  Mass of Ions in am
   POMASS =  12.01 14.00 55.85 54.94
  Ionic Valenz
   ZVAL   =   4.00  5.00  8.00  7.00
  Atomic Wigner-Seitz radii
   RWIGS  =  -1.00 -1.00 -1.00 -1.00
  virtual crystal weights 
   VCA    =   1.00  1.00  1.00  1.00
   NELECT =     237.0000    total number of electrons
   NUPDOWN=      -1.0000    fix difference up-down

 DOS related values:
   EMIN   =  10.00;   EMAX   =-10.00  energy-range for DOS
   EFERMI =   0.00
   ISMEAR =     0;   SIGMA  =   0.10  broadening in eV -4-tet -1-fermi 0-gaus

 Electronic relaxation 2 (details)
   IALGO  =     53    algorithm
   LDIAG  =      T    sub-space diagonalisation (order eigenvalues)
   LSUBROT=      F    optimize rotation matrix (better conditioning)
   TURBO    =      0    0=normal 1=particle mesh
   IRESTART =      0    0=no restart 2=restart with 2 vectors
   NREBOOT  =      0    no. of reboots
   NMIN     =      0    reboot dimension
   EREF     =   0.00    reference energy to select bands
   IMIX   =      4    mixing-type and parameters
     AMIX     =   0.40;   BMIX     =  1.00
     AMIX_MAG =   1.60;   BMIX_MAG =  1.00
     AMIN     =   0.10
     WC   =   100.;   INIMIX=   1;  MIXPRE=   1;  MAXMIX= -45

 Intra band minimization:
   WEIMIN = 0.0000     energy-eigenvalue tresh-hold
   EBREAK =  0.17E-06  absolut break condition
   DEPER  =   0.30     relativ break condition  

   TIME   =   0.20     timestep for ELM

  volume/ion in A,a.u.               =      56.73       382.83
  Fermi-wavevector in a.u.,A,eV,Ry     =   0.689166  1.302335  6.462085  0.474950
  Thomas-Fermi vector in A             =   1.770173
 
 Write flags
   LWAVE        =      T    write WAVECAR
   LDOWNSAMPLE  =      F    k-point downsampling of WAVECAR
   LCHARG       =      T    write CHGCAR
   LVTOT        =      F    write LOCPOT, total local potential
   LVHAR        =      F    write LOCPOT, Hartree potential only
   LELF         =      F    write electronic localiz. function (ELF)
   LORBIT       =     11    0 simple, 1 ext, 2 COOP (PROOUT), +10 PAW based schemes


 Dipole corrections
   LMONO  =      F    monopole corrections only (constant potential shift)
   LDIPOL =      T    correct potential (dipole corrections)
   IDIPOL =      3    1-x, 2-y, 3-z, 4-all directions 
   EPSILON=  1.0000000 bulk dielectric constant

 Exchange correlation treatment:
   GGA     =    PE    GGA type
   LEXCH   =     8    internal setting for exchange type
   VOSKOWN=      0    Vosko Wilk Nusair interpolation
   EXXOEP  =     0    0=HF, 1=EXX-LHF (local Hartree Fock) 2=EXX OEP
   LHFCALC =     T    Hartree Fock is set to
   LSYMGRAD=     F    symmetrize gradient (conserves proper symmetry)
   PRECFOCK=normal    Normal, Fast or Accurate (Low or Medium for compatibility)
   LRHFCALC=     F    long range Hartree Fock
   LRSCOR  =     F    long range correlation only (use DFT for short range part)
   LTHOMAS =     F    Thomas Fermi screening in HF
   LMODELHF=     F    short range full HF, long range fraction AEXX
   ENCUT4O =  -1.0   cutoff for four orbital integrals eV
   LMAXFOCK=     4    L truncation for augmentation on plane wave grid
   LMAXFOCKAE=  -1    L truncation for all-electron charge restoration on plane wave grid
   NMAXFOCKAE=   1    number of basis functions for all-electron charge restoration
   LFOCKAEDFT=     F  apply the AE augmentation even for DFT
   NKREDX  =     1    reduce k-point grid by
   NKREDY  =     1    reduce k-point grid by
   NKREDZ  =     1    reduce k-point grid by
   SHIFTRED=     F    shift reduced grid of Gamma
   HFKIDENT=     F    idential grid for each k-point
   ODDONLY =     F    use only odd q-grid points
   EVENONLY=     F    use only even q-grid points
   HFALPHA =   -1.0000 decay constant for conv. correction
   MCALPHA =    0.0000 extent of test-charge in conv. correction in multipole expansion
   AEXX    =    0.2500 exact exchange contribution
   HFSCREEN=    0.2000 screening length (either q_TF or 0.3 A-1)
   HFSCREENC=   0.2000 screening length for correlation (either q_TF or 0.3 A-1)
   HFRCUT  =    0.0000 spherical cutoff for potential kernel
   ALDAX   =    0.7500 LDA exchange part
   AGGAX   =    0.7500 GGA exchange part
   ALDAC   =    1.0000 LDA correlation
   AGGAC   =    1.0000 GGA correlation
   ENCUTFOCK=  -1.0 apply spherical cutoff to Coloumb kernel
   NBANDSGWLOW=     1    first orbital included in HF term
   NBLOCK_FOCK=    64    blocking factor in FOCK_ACC
 Linear response parameters
   LEPSILON=     F    determine dielectric tensor
   LRPA    =     F    only Hartree local field effects (RPA)
   LNABLA  =     F    use nabla operator in PAW spheres
   LVEL    =     F    velocity operator in full k-point grid
   LINTERFAST=   F  fast interpolation
   KINTER  =     0    interpolate to denser k-point grid
   CSHIFT  =0.1000    complex shift for real part using Kramers Kronig
   OMEGAMAX=  -1.0    maximum frequency
   DEG_THRESHOLD= 0.2000000E-02 threshold for treating states as degnerate
   RTIME   =   -0.100 relaxation time in fs
  (WPLASMAI=    0.000 imaginary part of plasma frequency in eV, 0.658/RTIME)
   DFIELD  = 0.0000000 0.0000000 0.0000000 field for delta impulse in time
 
 Orbital magnetization related:
   ORBITALMAG=     F  switch on orbital magnetization
   LCHIMAG   =     F  perturbation theory with respect to B field
   DQ        =  0.001000  dq finite difference perturbation B field
   LLRAUG    =     F  two centre corrections for induced B field



--------------------------------------------------------------------------------------------------------


 Static calculation
 charge density and potential will be updated during run
 spin polarized calculation
 Conjugate gradient for all bands (Freysoldt, et al. PRB 79, 241103 (2009))
 perform sub-space diagonalisation
    before iterative eigenvector-optimisation
 modified Broyden-mixing scheme, WC =      100.0
 initial mixing is a Kerker type mixing with AMIX =  0.4000 and BMIX =      1.0000
 Hartree-type preconditioning will be used
 using additional bands           32
 reciprocal scheme for non local part
 use partial core corrections
 no Harris-corrections to forces 
 use gradient corrections 
 use of overlap-Matrix (Vanderbilt PP)
 Gauss-broadening in eV      SIGMA  =   0.10


--------------------------------------------------------------------------------------------------------


  energy-cutoff  :      500.00
  volume of cell :     3176.88
      direct lattice vectors                 reciprocal lattice vectors
    12.742500000  0.000000000  0.000000000     0.078477536 -0.000001233 -0.000020272
     0.000193437 12.314599998  0.000000000     0.000000000  0.081204424  0.000047054
     0.005229563 -0.011731265 20.245395926     0.000000000  0.000000000  0.049393946

  length of vectors
    12.742500000 12.314600000 20.245400000     0.078477538  0.081204438  0.049393946


 
 old parameters found on file WAVECAR:
  energy-cutoff  :      500.00
  volume of cell :     3176.88
      direct lattice vectors                 reciprocal lattice vectors
    12.742500000  0.000000000  0.000000000     0.078477536 -0.000001233 -0.000020272
     0.000193437 12.314599998  0.000000000     0.000000000  0.081204424  0.000047054
     0.005229563 -0.011731265 20.245395926     0.000000000  0.000000000  0.049393946

  length of vectors

 
 k-points in units of 2pi/SCALE and weight: KPOINTS created by Atomic Simulation Env
   0.01961938  0.02030080  0.00000670       0.500
  -0.01961938  0.02030141  0.00001683       0.500
 
 k-points in reciprocal lattice and weights: KPOINTS created by Atomic Simulation Env
   0.25000000  0.25000000  0.00000000       0.500
  -0.25000000  0.25000000  0.00000000       0.500
 
 position of ions in fractional coordinates (direct lattice) 
   0.22182560  0.00078486  0.50057743
   0.05532944  0.10182708  0.50059401
   0.11003794  0.00084536  0.50033157
   0.27732527  0.10133472  0.50036862
   0.22416724  0.20329939  0.50007522
   0.05562055  0.30209223  0.50022522
   0.11152085  0.20238073  0.50055189
   0.28316790  0.30279802  0.49848937
   0.22669365  0.40547140  0.49908337
   0.05583361  0.50066264  0.49957877
   0.11289929  0.40157196  0.49969552
   0.22606032  0.59638124  0.50008324
   0.05548468  0.69952922  0.49961695
   0.11273473  0.60006111  0.49963310
   0.28272189  0.69922440  0.50152105
   0.22355700  0.79853002  0.50064937
   0.05524854  0.90006618  0.49992129
   0.11118480  0.79935621  0.49984217
   0.27729988  0.90012120  0.50099314
   0.55456024  0.00033115  0.50115394
   0.38871482  0.10086260  0.50029028
   0.44381304  0.00033410  0.50115088
   0.60966951  0.10085353  0.50030451
   0.55562056  0.20189038  0.49855934
   0.44277397  0.20189224  0.49854625
   0.55601325  0.79798136  0.50298256
   0.38878243  0.89968887  0.50164875
   0.44234652  0.79798105  0.50298268
   0.60959011  0.89968105  0.50165244
   0.88833389  0.00083126  0.50034060
   0.72105853  0.10132724  0.50038580
   0.77655091  0.00077362  0.50059057
   0.94304489  0.10181837  0.50059741
   0.88686640  0.20237640  0.50055858
   0.71521131  0.30278492  0.49851165
   0.77422053  0.20329218  0.50009389
   0.94276061  0.30209355  0.50022605
   0.88547432  0.40156927  0.49969502
   0.77168023  0.40545522  0.49908775
   0.94253998  0.50066150  0.49957658
   0.88563438  0.60005668  0.49963282
   0.71563550  0.69921096  0.50152519
   0.77230916  0.59636894  0.50008127
   0.94287444  0.69952735  0.49962180
   0.88718056  0.79935292  0.49985471
   0.72107267  0.90011392  0.50100653
   0.77480679  0.79851748  0.50066263
   0.94312576  0.90005844  0.49992895
   0.28030651  0.50109291  0.49937140
   0.39173136  0.30079735  0.49620512
   0.60665185  0.30079704  0.49623533
   0.39050380  0.70041475  0.50379351
   0.60785147  0.70040418  0.50379455
   0.71807230  0.50108106  0.49936684
   0.49921636  0.40483969  0.47210800
   0.49917784  0.57005849  0.51354447
 
 position of ions in cartesian coordinates  (Angst):
   2.82923068  0.00379285 10.13438818
   0.70767300  1.24808716 10.13472395
   1.40477512  0.00454072 10.12941063
   3.53645362  1.24202664 10.13016081
   2.85910562  2.49768412 10.12422087
   0.71141924  3.71427672 10.12725769
   1.42371125  2.48636568 10.13387120
   3.61093237  3.72298860 10.09211475
   2.89133222  4.98736324 10.10414033
   0.71416921  6.15959947 10.11416997
   1.44131009  4.93933605 10.11653357
   2.88330419  7.33832983 10.12438317
   0.70976159  8.60856138 10.11494303
   1.43925124  7.38365126 10.11527000
   3.60534171  8.60478532 10.15349225
   2.85144777  9.82770449 10.13584473
   0.70679296 11.07809022 10.12110449
   1.41954093  9.83788819 10.11950268
   3.53628784 11.07875523 10.14280442
   7.06910478 -0.00180116 10.14605995
   4.95583445  1.23621355 10.12857484
   5.65790859 -0.00176487 10.14599802
   7.77134962  1.23610171 10.12886299
   7.08264128  2.48035049 10.09353125
   5.64469350  2.48037358 10.09326629
   7.08778355  9.82092068 10.18308115
   4.95685750 11.07342359 10.15607761
   5.63938531  9.82091675 10.18308355
   7.77049949 11.07332724 10.15615229
  11.32221129  0.00436699 10.12959361
   9.19072469  1.24193431 10.13050871
   9.89781804  0.00365431 10.13465433
  12.01938707  1.24797990 10.13479272
  11.30355193  2.48631220 10.13400658
   9.11624566  3.72282694 10.09256580
   9.86815975  2.49759518 10.12459871
  12.01580146  3.71429294 10.12727449
  11.28584736  4.93930292 10.11652354
   9.83582379  4.98716392 10.10422905
  12.01302513  6.15958549 10.11412562
  11.28792508  7.38359667 10.11526420
   9.12174338  8.60461978 10.15357607
   9.84388000  7.33817836 10.12434338
  12.01732565  8.60853833 10.11504115
  11.30766693  9.83784758 10.11975658
   9.19106270 11.07866541 10.14307559
   9.87574829  9.82754998 10.13611322
  12.02056854 11.07799492 10.12125956
   3.57451407  6.16490047 10.10997169
   4.99428993  3.69837790 10.04586907
   7.73291450  3.69837374 10.04648078
   4.97876476  8.61941734 10.19949912
   7.74831745  8.61928711 10.19952023
   9.15274465  6.16475459 10.10987941
   6.36381175  4.97990042  9.55801332
   6.36356952  7.01401772 10.39691122
 


--------------------------------------------------------------------------------------------------------


 k-point  1 :   0.2500 0.2500 0.0000  plane waves:   80653
 k-point  2 :  -0.2500 0.2500 0.0000  plane waves:   80651

 maximum and minimum number of plane-waves per node :      3399     3327

 maximum number of plane-waves:     80653
 maximum index in each direction: 
   IXMAX=   23   IYMAX=   22   IZMAX=   36
   IXMIN=  -23   IYMIN=  -22   IZMIN=  -36


 parallel 3D FFT for wavefunctions:
    minimum data exchange during FFTs selected (reduces bandwidth)
 parallel 3D FFT for charge:
    minimum data exchange during FFTs selected (reduces bandwidth)


 FFT grid for exact exchange (Hartree Fock) 
  NGX = 70; NGY = 70; NGZ =112

 
 Radii for the augmentation spheres in the non-local exchange
 for species   1 augmentation radius   0.874 (default was   0.699)
       energy cutoff for augmentation   2000.0
 for species   2 augmentation radius   0.886 (default was   0.709)
       energy cutoff for augmentation   2000.0
 for species   3 augmentation radius   1.263 (default was   1.010)
       energy cutoff for augmentation   2000.0
 for species   4 augmentation radius   1.276 (default was   1.021)
       energy cutoff for augmentation   2000.0

 real space projection operators:
  total allocation   :       2400.89 KBytes
  max/ min on nodes  :        143.10         36.70

 Maximum index for augmentation-charges in exchange           65
  SETUP_FOCK is finished

 total amount of memory used by VASP MPI-rank0   202002. kBytes
=======================================================================

   base      :      30000. kBytes
   nonl-proj :       6977. kBytes
   fftplans  :      17535. kBytes
   grid      :      46049. kBytes
   one-center:         93. kBytes
   HF        :         46. kBytes
   nonlr-proj:       1543. kBytes
   wavefun   :      99759. kBytes
 
     INWAV:  cpu time    3.3808: real time    5.8351
 Broyden mixing: mesh for mixing (old mesh)
   NGX = 47   NGY = 45   NGZ = 73
  (NGX  =192   NGY  =180   NGZ  =300)
  gives a total of 154395 points

 charge density for first step will be calculated from the start-wavefunctions


--------------------------------------------------------------------------------------------------------


 Maximum index for augmentation-charges          711 (set IRDMAX)


--------------------------------------------------------------------------------------------------------


 initial charge from wavefunction
 First call to EWALD:  gamma=   0.121
 Maximum number of real-space cells 3x 3x 2
 Maximum number of reciprocal cells 2x 2x 4

    FEWALD:  cpu time    0.0028: real time    0.0028


--------------------------------------- Iteration      1(   1)  ---------------------------------------


    POTLOK:  cpu time    2.0872: real time    2.1061
    SETDIJ:  cpu time    2.0410: real time    2.0431
    TRIAL :  cpu time  313.6201: real time  314.1575
    CORREC:  cpu time    0.0010: real time    0.0010
    CHARGE:  cpu time    1.3385: real time    1.3402
    --------------------------------------------
      LOOP:  cpu time  319.1227: real time  319.6846

 eigenvalue-minimisations  :     0
 total energy-change (2. order) :-0.5875003E+03  (-0.4835820E+00)
 number of electron     237.0000017 magnetization       5.0100129
 augmentation part       13.4158891 magnetization       3.5227328

 DIPCOR: dipole corrections for dipol
 direction  3 min pos     1,
 dipolmoment           0.000011     -0.000024      0.041965 electrons x Angstroem
 Tr[quadrupol]     -6164.131090

 energy correction for charged system         0.000000 eV
 dipol+quadrupol energy correction            0.000050 eV
 added-field ion interaction          0.000000 eV  (added to PSCEN)


 Free energy of the ion-electron system (eV)
  ---------------------------------------------------
  alpha Z        PSCENC =        95.51342177
  Ewald energy   TEWEN  =     38145.15659521
  -Hartree energ DENC   =    -46402.87880525
  -exchange      EXHF   =       539.73100969
  -V(xc)+E(xc)   XCENC  =       594.01125689
  PAW double counting   =     25460.46549623   -25486.09569254
  entropy T*S    EENTRO =        -0.00771027
  eigenvalues    EBANDS =     -3083.17041502
  atomic energy  EATOM  =      9549.77749194
  ---------------------------------------------------
  free energy    TOTEN  =      -587.50031043 eV

  energy without entropy =     -587.49260015  energy(sigma->0) =     -587.49645529
  exchange ACFDT corr.  =        -0.01034327  see jH, gK, PRB 81, 115126


--------------------------------------------------------------------------------------------------------




--------------------------------------- Iteration      1(   2)  ---------------------------------------


    POTLOK:  cpu time    2.1253: real time    2.1268
    SETDIJ:  cpu time    2.0284: real time    2.0309
    TRIAL :  cpu time  313.3036: real time  313.8241
    CORREC:  cpu time    0.0010: real time    0.0010
    CHARGE:  cpu time    1.3439: real time    1.3451
    --------------------------------------------
      LOOP:  cpu time  318.8035: real time  319.3317

 eigenvalue-minimisations  :     0
 total energy-change (2. order) :-0.3917258E+00  (-0.4546984E+00)
 number of electron     237.0000016 magnetization       5.0084881
 augmentation part       13.3783881 magnetization       3.6080550

 DIPCOR: dipole corrections for dipol
 direction  3 min pos     1,
 dipolmoment           0.000004     -0.000008      0.014114 electrons x Angstroem
 Tr[quadrupol]     -6163.981075

 energy correction for charged system         0.000000 eV
 dipol+quadrupol energy correction            0.000006 eV
 added-field ion interaction          0.000000 eV  (added to PSCEN)


 Free energy of the ion-electron system (eV)
  ---------------------------------------------------
  alpha Z        PSCENC =        95.51337714
  Ewald energy   TEWEN  =     38145.15659521
  -Hartree energ DENC   =    -46390.38532087
  -exchange      EXHF   =       539.68684291
  -V(xc)+E(xc)   XCENC  =       593.74290585
  PAW double counting   =     25588.45565174   -25614.14094388
  entropy T*S    EENTRO =        -0.00579810
  eigenvalues    EBANDS =     -3095.69092602
  atomic energy  EATOM  =      9549.77749194
  ---------------------------------------------------
  free energy    TOTEN  =      -587.89203625 eV

  energy without entropy =     -587.88623816  energy(sigma->0) =     -587.88913720
  exchange ACFDT corr.  =        -0.00692495  see jH, gK, PRB 81, 115126


--------------------------------------------------------------------------------------------------------




--------------------------------------- Iteration      1(   3)  ---------------------------------------


    POTLOK:  cpu time    2.1521: real time    2.1543
    SETDIJ:  cpu time    2.0273: real time    2.0301
    TRIAL :  cpu time  313.9062: real time  314.4201
    CORREC:  cpu time    0.0010: real time    0.0010
    CHARGE:  cpu time    1.3462: real time    1.3479
    --------------------------------------------
      LOOP:  cpu time  319.4338: real time  319.9574

 eigenvalue-minimisations  :     0
 total energy-change (2. order) :-0.3506589E+00  (-0.2762824E+00)
 number of electron     237.0000016 magnetization       5.0061566
 augmentation part       13.3758976 magnetization       3.6737608

 DIPCOR: dipole corrections for dipol
 direction  3 min pos     1,
 dipolmoment           0.000009     -0.000021      0.035871 electrons x Angstroem
 Tr[quadrupol]     -6163.833738

 energy correction for charged system         0.000000 eV
 dipol+quadrupol energy correction            0.000037 eV
 added-field ion interaction          0.000000 eV  (added to PSCEN)


 Free energy of the ion-electron system (eV)
  ---------------------------------------------------
  alpha Z        PSCENC =        95.51340822
  Ewald energy   TEWEN  =     38145.15659521
  -Hartree energ DENC   =    -46374.93678680
  -exchange      EXHF   =       539.69311911
  -V(xc)+E(xc)   XCENC  =       593.43211922
  PAW double counting   =     25746.58744680   -25771.72504577
  entropy T*S    EENTRO =        -0.00409695
  eigenvalues    EBANDS =     -3111.73524503
  atomic energy  EATOM  =      9549.77749194
  ---------------------------------------------------
  free energy    TOTEN  =      -588.24269519 eV

  energy without entropy =     -588.23859825  energy(sigma->0) =     -588.24064672
  exchange ACFDT corr.  =        -0.00489244  see jH, gK, PRB 81, 115126


--------------------------------------------------------------------------------------------------------




--------------------------------------- Iteration      1(   4)  ---------------------------------------


    POTLOK:  cpu time    2.1469: real time    2.1640
    SETDIJ:  cpu time    2.0375: real time    2.0396
    TRIAL :  cpu time  313.5481: real time  314.0489
    CORREC:  cpu time    0.0010: real time    0.0010
    CHARGE:  cpu time    1.3417: real time    1.3428
    --------------------------------------------
      LOOP:  cpu time  319.0761: real time  319.6004

 eigenvalue-minimisations  :     0
 total energy-change (2. order) :-0.2206667E+00  (-0.1818743E+00)
 number of electron     237.0000016 magnetization       5.0042029
 augmentation part       13.3891282 magnetization       3.7179308

 DIPCOR: dipole corrections for dipol
 direction  3 min pos     1,
 dipolmoment           0.000010     -0.000022      0.038776 electrons x Angstroem
 Tr[quadrupol]     -6163.790372

 energy correction for charged system         0.000000 eV
 dipol+quadrupol energy correction            0.000043 eV
 added-field ion interaction          0.000000 eV  (added to PSCEN)


 Free energy of the ion-electron system (eV)
  ---------------------------------------------------
  alpha Z        PSCENC =        95.51341441
  Ewald energy   TEWEN  =     38145.15659521
  -Hartree energ DENC   =    -46369.62134000
  -exchange      EXHF   =       539.92303169
  -V(xc)+E(xc)   XCENC  =       593.37701809
  PAW double counting   =     25883.75773557   -25908.86371647
  entropy T*S    EENTRO =        -0.00291315
  eigenvalues    EBANDS =     -3117.47949534
  atomic energy  EATOM  =      9549.77749194
  ---------------------------------------------------
  free energy    TOTEN  =      -588.46336184 eV

  energy without entropy =     -588.46044869  energy(sigma->0) =     -588.46190527
  exchange ACFDT corr.  =        -0.00322331  see jH, gK, PRB 81, 115126


--------------------------------------------------------------------------------------------------------




--------------------------------------- Iteration      1(   5)  ---------------------------------------


    POTLOK:  cpu time    2.1608: real time    2.1627
    SETDIJ:  cpu time    2.0301: real time    2.0312
    TRIAL :  cpu time  313.2812: real time  313.7808
    CORREC:  cpu time    0.0009: real time    0.0009
    CHARGE:  cpu time    1.3341: real time    1.3351
    --------------------------------------------
      LOOP:  cpu time  318.8080: real time  319.3143

 eigenvalue-minimisations  :     0
 total energy-change (2. order) :-0.1495184E+00  (-0.1261723E+00)
 number of electron     237.0000016 magnetization       5.0029741
 augmentation part       13.3932597 magnetization       3.7520323

 DIPCOR: dipole corrections for dipol
 direction  3 min pos     1,
 dipolmoment           0.000009     -0.000020      0.035281 electrons x Angstroem
 Tr[quadrupol]     -6163.831338

 energy correction for charged system         0.000000 eV
 dipol+quadrupol energy correction            0.000036 eV
 added-field ion interaction          0.000000 eV  (added to PSCEN)


 Free energy of the ion-electron system (eV)
  ---------------------------------------------------
  alpha Z        PSCENC =        95.51340702
  Ewald energy   TEWEN  =     38145.15659521
  -Hartree energ DENC   =    -46372.05248767
  -exchange      EXHF   =       540.28389664
  -V(xc)+E(xc)   XCENC  =       593.51172409
  PAW double counting   =     25981.81164303   -26007.09837741
  entropy T*S    EENTRO =        -0.00223804
  eigenvalues    EBANDS =     -3115.51385991
  atomic energy  EATOM  =      9549.77749194
  ---------------------------------------------------
  free energy    TOTEN  =      -588.61288021 eV

  energy without entropy =     -588.61064217  energy(sigma->0) =     -588.61176119
  exchange ACFDT corr.  =        -0.00215424  see jH, gK, PRB 81, 115126


--------------------------------------------------------------------------------------------------------




--------------------------------------- Iteration      1(   6)  ---------------------------------------


    POTLOK:  cpu time    2.1575: real time    2.1593
    SETDIJ:  cpu time    2.0302: real time    2.0314
    TRIAL :  cpu time  312.9451: real time  313.4055
    CORREC:  cpu time    0.0009: real time    0.0009
    CHARGE:  cpu time    1.3351: real time    1.3361
    --------------------------------------------
      LOOP:  cpu time  318.4696: real time  318.9368

 eigenvalue-minimisations  :     0
 total energy-change (2. order) :-0.1074537E+00  (-0.8976435E-01)
 number of electron     237.0000016 magnetization       5.0021137
 augmentation part       13.3955457 magnetization       3.7802951

 DIPCOR: dipole corrections for dipol
 direction  3 min pos     1,
 dipolmoment           0.000010     -0.000023      0.040531 electrons x Angstroem
 Tr[quadrupol]     -6163.895279

 energy correction for charged system         0.000000 eV
 dipol+quadrupol energy correction            0.000047 eV
 added-field ion interaction          0.000000 eV  (added to PSCEN)


 Free energy of the ion-electron system (eV)
  ---------------------------------------------------
  alpha Z        PSCENC =        95.51341839
  Ewald energy   TEWEN  =     38145.15659521
  -Hartree energ DENC   =    -46376.18715382
  -exchange      EXHF   =       540.63447831
  -V(xc)+E(xc)   XCENC  =       593.68695816
  PAW double counting   =     26043.75713255   -26069.07998340
  entropy T*S    EENTRO =        -0.00178943
  eigenvalues    EBANDS =     -3111.97703320
  atomic energy  EATOM  =      9549.77749194
  ---------------------------------------------------
  free energy    TOTEN  =      -588.72033391 eV

  energy without entropy =     -588.71854448  energy(sigma->0) =     -588.71943919
  exchange ACFDT corr.  =        -0.00158085  see jH, gK, PRB 81, 115126


--------------------------------------------------------------------------------------------------------




--------------------------------------- Iteration      1(   7)  ---------------------------------------


    POTLOK:  cpu time    2.1554: real time    2.1593
    SETDIJ:  cpu time    2.0124: real time    2.0308
    TRIAL :  cpu time  312.4864: real time  312.9522
    CORREC:  cpu time    0.0009: real time    0.0009
    CHARGE:  cpu time    1.3340: real time    1.3349
    --------------------------------------------
      LOOP:  cpu time  317.9899: real time  318.4826

 eigenvalue-minimisations  :     0
 total energy-change (2. order) :-0.7791890E-01  (-0.6559630E-01)
 number of electron     237.0000016 magnetization       5.0014745
 augmentation part       13.4019327 magnetization       3.8046628

 DIPCOR: dipole corrections for dipol
 direction  3 min pos     1,
 dipolmoment           0.000012     -0.000026      0.045607 electrons x Angstroem
 Tr[quadrupol]     -6163.948494

 energy correction for charged system         0.000000 eV
 dipol+quadrupol energy correction            0.000059 eV
 added-field ion interaction          0.000000 eV  (added to PSCEN)


 Free energy of the ion-electron system (eV)
  ---------------------------------------------------
  alpha Z        PSCENC =        95.51343088
  Ewald energy   TEWEN  =     38145.15659521
  -Hartree energ DENC   =    -46379.73932186
  -exchange      EXHF   =       540.91948294
  -V(xc)+E(xc)   XCENC  =       593.84219268
  PAW double counting   =     26080.92323649   -26106.26327419
  entropy T*S    EENTRO =        -0.00144861
  eigenvalues    EBANDS =     -3108.92629747
  atomic energy  EATOM  =      9549.77749194
  ---------------------------------------------------
  free energy    TOTEN  =      -588.79825281 eV

  energy without entropy =     -588.79680420  energy(sigma->0) =     -588.79752850
  exchange ACFDT corr.  =        -0.00121597  see jH, gK, PRB 81, 115126


--------------------------------------------------------------------------------------------------------




--------------------------------------- Iteration      1(   8)  ---------------------------------------


    POTLOK:  cpu time    2.1473: real time    2.1487
    SETDIJ:  cpu time    2.0294: real time    2.0307
    TRIAL :  cpu time  312.6397: real time  313.1111
    CORREC:  cpu time    0.0009: real time    0.0009
    CHARGE:  cpu time    1.3317: real time    1.3331
    --------------------------------------------
      LOOP:  cpu time  318.1503: real time  318.6287

 eigenvalue-minimisations  :     0
 total energy-change (2. order) :-0.5836086E-01  (-0.4973302E-01)
 number of electron     237.0000016 magnetization       5.0010391
 augmentation part       13.4081179 magnetization       3.8271510

 DIPCOR: dipole corrections for dipol
 direction  3 min pos     1,
 dipolmoment           0.000012     -0.000027      0.046087 electrons x Angstroem
 Tr[quadrupol]     -6163.982545

 energy correction for charged system         0.000000 eV
 dipol+quadrupol energy correction            0.000061 eV
 added-field ion interaction          0.000000 eV  (added to PSCEN)


 Free energy of the ion-electron system (eV)
  ---------------------------------------------------
  alpha Z        PSCENC =        95.51343214
  Ewald energy   TEWEN  =     38145.15659521
  -Hartree energ DENC   =    -46382.21732690
  -exchange      EXHF   =       541.13291684
  -V(xc)+E(xc)   XCENC  =       593.96252871
  PAW double counting   =     26102.84134834   -26128.27515855
  entropy T*S    EENTRO =        -0.00120708
  eigenvalues    EBANDS =     -3106.74699277
  atomic energy  EATOM  =      9549.77749194
  ---------------------------------------------------
  free energy    TOTEN  =      -588.85661367 eV

  energy without entropy =     -588.85540658  energy(sigma->0) =     -588.85601012
  exchange ACFDT corr.  =        -0.00094953  see jH, gK, PRB 81, 115126


--------------------------------------------------------------------------------------------------------




--------------------------------------- Iteration      1(   9)  ---------------------------------------


    POTLOK:  cpu time    2.1420: real time    2.1441
    SETDIJ:  cpu time    2.0268: real time    2.0287
    TRIAL :  cpu time  312.0539: real time  312.5435
    CORREC:  cpu time    0.0009: real time    0.0009
    CHARGE:  cpu time    1.3326: real time    1.3334
    --------------------------------------------
      LOOP:  cpu time  317.5572: real time  318.0562

 eigenvalue-minimisations  :     0
 total energy-change (2. order) :-0.4485144E-01  (-0.3846585E-01)
 number of electron     237.0000016 magnetization       5.0007581
 augmentation part       13.4109894 magnetization       3.8485133

 DIPCOR: dipole corrections for dipol
 direction  3 min pos     1,
 dipolmoment           0.000012     -0.000026      0.045564 electrons x Angstroem
 Tr[quadrupol]     -6164.000053

 energy correction for charged system         0.000000 eV
 dipol+quadrupol energy correction            0.000059 eV
 added-field ion interaction          0.000000 eV  (added to PSCEN)


 Free energy of the ion-electron system (eV)
  ---------------------------------------------------
  alpha Z        PSCENC =        95.51343077
  Ewald energy   TEWEN  =     38145.15659521
  -Hartree energ DENC   =    -46383.49333630
  -exchange      EXHF   =       541.28463801
  -V(xc)+E(xc)   XCENC  =       594.04506621
  PAW double counting   =     26115.29611058   -26140.83523079
  entropy T*S    EENTRO =        -0.00104915
  eigenvalues    EBANDS =     -3105.64502365
  atomic energy  EATOM  =      9549.77749194
  ---------------------------------------------------
  free energy    TOTEN  =      -588.90146511 eV

  energy without entropy =     -588.90041596  energy(sigma->0) =     -588.90094053
  exchange ACFDT corr.  =        -0.00076679  see jH, gK, PRB 81, 115126


--------------------------------------------------------------------------------------------------------




--------------------------------------- Iteration      1(  10)  ---------------------------------------


    POTLOK:  cpu time    2.1384: real time    2.1399
    SETDIJ:  cpu time    2.0327: real time    2.0341
    TRIAL :  cpu time  311.9263: real time  312.3904
    CORREC:  cpu time    0.0009: real time    0.0009
    CHARGE:  cpu time    1.3287: real time    1.3296
    --------------------------------------------
      LOOP:  cpu time  317.4276: real time  317.8983

 eigenvalue-minimisations  :     0
 total energy-change (2. order) :-0.3514177E-01  (-0.3039253E-01)
 number of electron     237.0000016 magnetization       5.0005711
 augmentation part       13.4119202 magnetization       3.8683250

 DIPCOR: dipole corrections for dipol
 direction  3 min pos     1,
 dipolmoment           0.000012     -0.000027      0.046509 electrons x Angstroem
 Tr[quadrupol]     -6164.007740

 energy correction for charged system         0.000000 eV
 dipol+quadrupol energy correction            0.000062 eV
 added-field ion interaction          0.000000 eV  (added to PSCEN)


 Free energy of the ion-electron system (eV)
  ---------------------------------------------------
  alpha Z        PSCENC =        95.51343326
  Ewald energy   TEWEN  =     38145.15659521
  -Hartree energ DENC   =    -46383.89003629
  -exchange      EXHF   =       541.39366919
  -V(xc)+E(xc)   XCENC  =       594.09883328
  PAW double counting   =     26121.95784451   -26147.56358938
  entropy T*S    EENTRO =        -0.00094480
  eigenvalues    EBANDS =     -3105.37979946
  atomic energy  EATOM  =      9549.77749194
  ---------------------------------------------------
  free energy    TOTEN  =      -588.93660688 eV

  energy without entropy =     -588.93566208  energy(sigma->0) =     -588.93613448
  exchange ACFDT corr.  =        -0.00064974  see jH, gK, PRB 81, 115126


--------------------------------------------------------------------------------------------------------




--------------------------------------- Iteration      1(  11)  ---------------------------------------


    POTLOK:  cpu time    2.1317: real time    2.1333
    SETDIJ:  cpu time    2.0262: real time    2.0289
    TRIAL :  cpu time  312.5468: real time  314.0670
    CORREC:  cpu time    0.0009: real time    0.0009
    CHARGE:  cpu time    1.3312: real time    1.3324
    --------------------------------------------
      LOOP:  cpu time  318.0379: real time  319.5667

 eigenvalue-minimisations  :     0
 total energy-change (2. order) :-0.2803377E-01  (-0.2445626E-01)
 number of electron     237.0000016 magnetization       5.0004400
 augmentation part       13.4128870 magnetization       3.8862560

 DIPCOR: dipole corrections for dipol
 direction  3 min pos     1,
 dipolmoment           0.000012     -0.000028      0.048065 electrons x Angstroem
 Tr[quadrupol]     -6164.011877

 energy correction for charged system         0.000000 eV
 dipol+quadrupol energy correction            0.000066 eV
 added-field ion interaction          0.000000 eV  (added to PSCEN)


 Free energy of the ion-electron system (eV)
  ---------------------------------------------------
  alpha Z        PSCENC =        95.51343746
  Ewald energy   TEWEN  =     38145.15659521
  -Hartree energ DENC   =    -46383.95399318
  -exchange      EXHF   =       541.47895918
  -V(xc)+E(xc)   XCENC  =       594.13793479
  PAW double counting   =     26125.48155835   -26151.13091265
  entropy T*S    EENTRO =        -0.00087187
  eigenvalues    EBANDS =     -3105.42476697
  atomic energy  EATOM  =      9549.77749194
  ---------------------------------------------------
  free energy    TOTEN  =      -588.96464065 eV

  energy without entropy =     -588.96376879  energy(sigma->0) =     -588.96420472
  exchange ACFDT corr.  =        -0.00057346  see jH, gK, PRB 81, 115126


--------------------------------------------------------------------------------------------------------




--------------------------------------- Iteration      1(  12)  ---------------------------------------


    POTLOK:  cpu time    2.1095: real time    2.1270
    SETDIJ:  cpu time    2.0363: real time    2.0380
    TRIAL :  cpu time  311.6855: real time  312.1339
    CORREC:  cpu time    0.0009: real time    0.0009
    CHARGE:  cpu time    1.3275: real time    1.3283
    --------------------------------------------
      LOOP:  cpu time  317.1608: real time  317.6315

 eigenvalue-minimisations  :     0
 total energy-change (2. order) :-0.2277602E-01  (-0.2007846E-01)
 number of electron     237.0000016 magnetization       5.0003458
 augmentation part       13.4141415 magnetization       3.9025770

 DIPCOR: dipole corrections for dipol
 direction  3 min pos     1,
 dipolmoment           0.000013     -0.000028      0.049001 electrons x Angstroem
 Tr[quadrupol]     -6164.015669

 energy correction for charged system         0.000000 eV
 dipol+quadrupol energy correction            0.000069 eV
 added-field ion interaction          0.000000 eV  (added to PSCEN)


 Free energy of the ion-electron system (eV)
  ---------------------------------------------------
  alpha Z        PSCENC =        95.51344006
  Ewald energy   TEWEN  =     38145.15659521
  -Hartree energ DENC   =    -46384.02563472
  -exchange      EXHF   =       541.55170653
  -V(xc)+E(xc)   XCENC  =       594.17144348
  PAW double counting   =     26127.69495908   -26153.39041064
  entropy T*S    EENTRO =        -0.00082030
  eigenvalues    EBANDS =     -3105.43613574
  atomic energy  EATOM  =      9549.77749194
  ---------------------------------------------------
  free energy    TOTEN  =      -588.98741668 eV

  energy without entropy =     -588.98659638  energy(sigma->0) =     -588.98700653
  exchange ACFDT corr.  =        -0.00052054  see jH, gK, PRB 81, 115126


--------------------------------------------------------------------------------------------------------




--------------------------------------- Iteration      1(  13)  ---------------------------------------


    POTLOK:  cpu time    2.1197: real time    2.1220
    SETDIJ:  cpu time    2.0309: real time    2.0329
    TRIAL :  cpu time  311.0150: real time  311.4976
    CORREC:  cpu time    0.0009: real time    0.0009
    CHARGE:  cpu time    1.3272: real time    1.3280
    --------------------------------------------
      LOOP:  cpu time  316.4946: real time  316.9851

 eigenvalue-minimisations  :     0
 total energy-change (2. order) :-0.1884183E-01  (-0.1673310E-01)
 number of electron     237.0000016 magnetization       5.0002775
 augmentation part       13.4151112 magnetization       3.9177105

 DIPCOR: dipole corrections for dipol
 direction  3 min pos     1,
 dipolmoment           0.000013     -0.000029      0.049353 electrons x Angstroem
 Tr[quadrupol]     -6164.019756

 energy correction for charged system         0.000000 eV
 dipol+quadrupol energy correction            0.000070 eV
 added-field ion interaction          0.000000 eV  (added to PSCEN)


 Free energy of the ion-electron system (eV)
  ---------------------------------------------------
  alpha Z        PSCENC =        95.51344105
  Ewald energy   TEWEN  =     38145.15659521
  -Hartree energ DENC   =    -46384.15794587
  -exchange      EXHF   =       541.61607833
  -V(xc)+E(xc)   XCENC  =       594.20173844
  PAW double counting   =     26129.68577494   -26155.43111556
  entropy T*S    EENTRO =        -0.00078514
  eigenvalues    EBANDS =     -3105.36749669
  atomic energy  EATOM  =      9549.77749194
  ---------------------------------------------------
  free energy    TOTEN  =      -589.00625850 eV

  energy without entropy =     -589.00547336  energy(sigma->0) =     -589.00586593
  exchange ACFDT corr.  =        -0.00048320  see jH, gK, PRB 81, 115126


--------------------------------------------------------------------------------------------------------




--------------------------------------- Iteration      1(  14)  ---------------------------------------


    POTLOK:  cpu time    2.1139: real time    2.1163
    SETDIJ:  cpu time    2.0295: real time    2.0312
    TRIAL :  cpu time  310.4246: real time  310.8905
    CORREC:  cpu time    0.0009: real time    0.0009
    CHARGE:  cpu time    1.3285: real time    1.3299
    --------------------------------------------
      LOOP:  cpu time  315.8988: real time  316.3728

 eigenvalue-minimisations  :     0
 total energy-change (2. order) :-0.1580313E-01  (-0.1413625E-01)
 number of electron     237.0000016 magnetization       5.0002272
 augmentation part       13.4156020 magnetization       3.9318216

 DIPCOR: dipole corrections for dipol
 direction  3 min pos     1,
 dipolmoment           0.000013     -0.000029      0.049720 electrons x Angstroem
 Tr[quadrupol]     -6164.023859

 energy correction for charged system         0.000000 eV
 dipol+quadrupol energy correction            0.000071 eV
 added-field ion interaction          0.000000 eV  (added to PSCEN)


 Free energy of the ion-electron system (eV)
  ---------------------------------------------------
  alpha Z        PSCENC =        95.51344208
  Ewald energy   TEWEN  =     38145.15659521
  -Hartree energ DENC   =    -46384.29246294
  -exchange      EXHF   =       541.67340756
  -V(xc)+E(xc)   XCENC  =       594.22848644
  PAW double counting   =     26131.94253617   -26157.73189448
  entropy T*S    EENTRO =        -0.00076181
  eigenvalues    EBANDS =     -3105.28887849
  atomic energy  EATOM  =      9549.77749194
  ---------------------------------------------------
  free energy    TOTEN  =      -589.02206164 eV

  energy without entropy =     -589.02129983  energy(sigma->0) =     -589.02168073
  exchange ACFDT corr.  =        -0.00045750  see jH, gK, PRB 81, 115126


--------------------------------------------------------------------------------------------------------




--------------------------------------- Iteration      1(  15)  ---------------------------------------


    POTLOK:  cpu time    2.1142: real time    2.1157
    SETDIJ:  cpu time    2.0284: real time    2.0298
    TRIAL :  cpu time  310.4403: real time  310.8992
    CORREC:  cpu time    0.0009: real time    0.0009
    CHARGE:  cpu time    1.3215: real time    1.3227
    --------------------------------------------
      LOOP:  cpu time  315.9067: real time  316.3738

 eigenvalue-minimisations  :     0
 total energy-change (2. order) :-0.1342054E-01  (-0.1208765E-01)
 number of electron     237.0000016 magnetization       5.0001891
 augmentation part       13.4158848 magnetization       3.9448904

 DIPCOR: dipole corrections for dipol
 direction  3 min pos     1,
 dipolmoment           0.000013     -0.000029      0.050280 electrons x Angstroem
 Tr[quadrupol]     -6164.027653

 energy correction for charged system         0.000000 eV
 dipol+quadrupol energy correction            0.000072 eV
 added-field ion interaction          0.000000 eV  (added to PSCEN)


 Free energy of the ion-electron system (eV)
  ---------------------------------------------------
  alpha Z        PSCENC =        95.51344369
  Ewald energy   TEWEN  =     38145.15659521
  -Hartree energ DENC   =    -46384.39350586
  -exchange      EXHF   =       541.72450144
  -V(xc)+E(xc)   XCENC  =       594.25157985
  PAW double counting   =     26134.51888858   -26160.34338645
  entropy T*S    EENTRO =        -0.00074601
  eigenvalues    EBANDS =     -3105.24032877
  atomic energy  EATOM  =      9549.77749194
  ---------------------------------------------------
  free energy    TOTEN  =      -589.03548218 eV

  energy without entropy =     -589.03473617  energy(sigma->0) =     -589.03510918
  exchange ACFDT corr.  =        -0.00044005  see jH, gK, PRB 81, 115126


--------------------------------------------------------------------------------------------------------




--------------------------------------- Iteration      1(  16)  ---------------------------------------


    POTLOK:  cpu time    2.1090: real time    2.1106
    SETDIJ:  cpu time    2.0313: real time    2.0324
    TRIAL :  cpu time  308.9896: real time  309.4527
    CORREC:  cpu time    0.0009: real time    0.0009
    CHARGE:  cpu time    1.3254: real time    1.3262
    --------------------------------------------
      LOOP:  cpu time  314.4573: real time  314.9261

 eigenvalue-minimisations  :     0
 total energy-change (2. order) :-0.1152524E-01  (-0.1045740E-01)
 number of electron     237.0000016 magnetization       5.0001595
 augmentation part       13.4161887 magnetization       3.9569617

 DIPCOR: dipole corrections for dipol
 direction  3 min pos     1,
 dipolmoment           0.000013     -0.000029      0.050806 electrons x Angstroem
 Tr[quadrupol]     -6164.031040

 energy correction for charged system         0.000000 eV
 dipol+quadrupol energy correction            0.000074 eV
 added-field ion interaction          0.000000 eV  (added to PSCEN)


 Free energy of the ion-electron system (eV)
  ---------------------------------------------------
  alpha Z        PSCENC =        95.51344520
  Ewald energy   TEWEN  =     38145.15659521
  -Hartree energ DENC   =    -46384.47077869
  -exchange      EXHF   =       541.77030139
  -V(xc)+E(xc)   XCENC  =       594.27173242
  PAW double counting   =     26137.21736620   -26163.07264254
  entropy T*S    EENTRO =        -0.00073497
  eigenvalues    EBANDS =     -3105.20977256
  atomic energy  EATOM  =      9549.77749194
  ---------------------------------------------------
  free energy    TOTEN  =      -589.04700742 eV

  energy without entropy =     -589.04627245  energy(sigma->0) =     -589.04663994
  exchange ACFDT corr.  =        -0.00042787  see jH, gK, PRB 81, 115126


--------------------------------------------------------------------------------------------------------




--------------------------------------- Iteration      1(  17)  ---------------------------------------


    POTLOK:  cpu time    2.1143: real time    2.1202
    SETDIJ:  cpu time    2.0216: real time    2.0231
    TRIAL :  cpu time  308.6572: real time  309.0944
    CORREC:  cpu time    0.0009: real time    0.0009
    CHARGE:  cpu time    1.3236: real time    1.3248
    --------------------------------------------
      LOOP:  cpu time  314.1191: real time  314.5678

 eigenvalue-minimisations  :     0
 total energy-change (2. order) :-0.1000866E-01  (-0.9141844E-02)
 number of electron     237.0000016 magnetization       5.0001363
 augmentation part       13.4164881 magnetization       3.9681930

 DIPCOR: dipole corrections for dipol
 direction  3 min pos     1,
 dipolmoment           0.000013     -0.000030      0.051141 electrons x Angstroem
 Tr[quadrupol]     -6164.034027

 energy correction for charged system         0.000000 eV
 dipol+quadrupol energy correction            0.000075 eV
 added-field ion interaction          0.000000 eV  (added to PSCEN)


 Free energy of the ion-electron system (eV)
  ---------------------------------------------------
  alpha Z        PSCENC =        95.51344618
  Ewald energy   TEWEN  =     38145.15659521
  -Hartree energ DENC   =    -46384.54095366
  -exchange      EXHF   =       541.81175391
  -V(xc)+E(xc)   XCENC  =       594.28979336
  PAW double counting   =     26139.79084897   -26165.67631908
  entropy T*S    EENTRO =        -0.00072743
  eigenvalues    EBANDS =     -3105.17893795
  atomic energy  EATOM  =      9549.77749194
  ---------------------------------------------------
  free energy    TOTEN  =      -589.05701608 eV

  energy without entropy =     -589.05628865  energy(sigma->0) =     -589.05665237
  exchange ACFDT corr.  =        -0.00041907  see jH, gK, PRB 81, 115126


--------------------------------------------------------------------------------------------------------




--------------------------------------- Iteration      1(  18)  ---------------------------------------


    POTLOK:  cpu time    2.1057: real time    2.1070
    SETDIJ:  cpu time    2.0314: real time    2.0327
    TRIAL :  cpu time  308.4163: real time  308.8871
    CORREC:  cpu time    0.0009: real time    0.0009
    CHARGE:  cpu time    1.3268: real time    1.3282
[...]
  Alpha Z    95.51337    95.51337    95.51337
  Ewald   46186.30676 46341.07298-54382.24810     0.04993  -120.91902     0.03838
  Hartree 45739.30862 45762.91416-45116.48131     0.02732   -69.54686     0.02750
  E(xc)    -694.27258  -695.62621  -708.32401     0.00029    -0.64841     0.00016
  Local  -94471.42248-94639.63198 96483.74361    -0.07469   183.09037    -0.06272
  n-local  -178.51497  -171.40711  -169.12409     0.00356     1.24485    -0.00073
  augment    45.81100    48.99822    48.49023    -0.00010     1.58050    -0.00146
  Kinetic  3559.67387  3546.03517  4049.94390    -0.03646     7.45631    -0.00227
  Fock     -324.25709  -327.87989  -301.33026    -0.00071    -0.37949     0.00168
  -------------------------------------------------------------------------------------
  Total     -41.85349   -40.01128     0.18334    -0.03086     1.87824     0.00054
  in kB     -21.10771   -20.17864     0.09246    -0.01556     0.94724     0.00027
  external pressure =      -13.73 kB  Pullay stress =        0.00 kB


 VOLUME and BASIS-vectors are now :
 -----------------------------------------------------------------------------
  energy-cutoff  :      500.00
  volume of cell :     3176.88
      direct lattice vectors                 reciprocal lattice vectors
    12.742500000  0.000000000  0.000000000     0.078477536 -0.000001233 -0.000020272
     0.000193437 12.314599998  0.000000000     0.000000000  0.081204424  0.000047054
     0.005229563 -0.011731265 20.245395926     0.000000000  0.000000000  0.049393946

  length of vectors
    12.742500000 12.314600000 20.245400000     0.078477538  0.081204438  0.049393946


 FORCES acting on ions:
    Electron-Ion                     Ewald-Force                    Non-Local-Force
 -----------------------------------------------------------------------------------------------
   0.200E+01 0.161E+01 -.206E+01   -.240E+01 -.147E+01 0.206E+01   0.493E+00 -.594E-01 0.111E-02
   0.688E+00 -.208E+01 -.349E+01   -.649E+00 0.199E+01 0.349E+01   0.494E-02 0.392E-01 -.563E-02
   0.257E+01 0.313E+00 -.772E+00   -.282E+01 -.332E+00 0.773E+00   0.131E+00 0.329E-02 0.566E-02
   0.894E+01 0.284E+01 -.411E+01   -.940E+01 -.316E+01 0.408E+01   0.352E+00 0.198E+00 0.231E-01
   0.906E+01 -.565E+01 -.541E+01   -.938E+01 0.586E+01 0.538E+01   0.384E+00 -.854E-01 0.131E-01
   0.286E+01 -.303E+01 -.317E+01   -.293E+01 0.284E+01 0.316E+01   0.203E+00 0.146E+00 0.140E-02
   -.820E+00 -.607E-01 -.536E+01   0.371E+00 0.188E+00 0.539E+01   0.295E+00 -.527E-01 -.286E-01
   0.252E+02 -.211E+02 -.242E+01   -.290E+02 0.216E+02 0.248E+01   0.344E+01 -.469E+00 -.759E-01
   -.256E+01 0.183E+02 -.403E+00   0.106E+01 -.206E+02 0.480E+00   0.140E+01 0.201E+01 -.687E-01
   0.645E+01 -.860E+00 0.862E+00   -.657E+01 0.835E+00 -.859E+00   -.115E+00 -.241E-01 -.252E-02
   -.474E+01 0.373E+01 -.113E+01   0.480E+01 -.417E+01 0.115E+01   0.138E-01 0.394E+00 -.155E-01
   -.728E+01 -.220E+02 -.196E+00   0.561E+01 0.242E+02 0.207E+00   0.151E+01 -.201E+01 -.236E-01
   0.162E+01 0.287E+01 0.252E+01   -.170E+01 -.266E+01 -.251E+01   0.187E+00 -.117E+00 0.205E-02
   -.454E+01 -.457E+01 0.181E+01   0.464E+01 0.502E+01 -.185E+01   0.766E-01 -.384E+00 0.343E-01
   0.181E+02 0.220E+02 -.327E+01   -.217E+02 -.224E+02 0.313E+01   0.338E+01 0.436E+00 0.154E+00
   0.522E+01 0.718E+01 0.251E+00   -.569E+01 -.732E+01 -.247E+00   0.516E+00 0.137E+00 0.804E-02
   0.478E-01 0.293E+01 0.192E+01   -.233E-01 -.284E+01 -.192E+01   -.805E-03 -.285E-01 0.589E-02
   -.153E+01 0.684E+00 0.294E+01   0.990E+00 -.811E+00 -.297E+01   0.385E+00 0.517E-01 0.271E-01
   0.619E+01 0.178E+00 -.219E+01   -.658E+01 0.973E-01 0.221E+01   0.328E+00 -.293E+00 -.147E-01
   -.444E+01 0.413E+01 -.540E+01   0.400E+01 -.407E+01 0.539E+01   0.316E+00 -.247E-01 0.748E-02
   0.163E+01 0.764E+01 -.630E+01   -.146E+01 -.820E+01 0.630E+01   0.188E-01 0.618E+00 -.204E-01
   0.444E+01 0.413E+01 -.540E+01   -.400E+01 -.407E+01 0.540E+01   -.315E+00 -.252E-01 0.677E-02
   -.162E+01 0.765E+01 -.637E+01   0.146E+01 -.821E+01 0.637E+01   -.194E-01 0.620E+00 -.212E-01
   0.578E+01 0.242E+02 -.821E+01   -.714E+01 -.274E+02 0.865E+01   0.124E+01 0.295E+01 -.417E+00
   -.577E+01 0.242E+02 -.815E+01   0.712E+01 -.274E+02 0.859E+01   -.125E+01 0.295E+01 -.418E+00
   0.163E+02 -.880E+01 -.867E+01   -.174E+02 0.117E+02 0.857E+01   0.133E+01 -.282E+01 0.914E-01
   -.180E+01 0.370E+00 -.404E+01   0.202E+01 0.168E+00 0.402E+01   -.107E+00 -.616E+00 0.314E-01
   -.163E+02 -.880E+01 -.868E+01   0.174E+02 0.117E+02 0.859E+01   -.133E+01 -.282E+01 0.907E-01
   0.180E+01 0.376E+00 -.404E+01   -.202E+01 0.163E+00 0.402E+01   0.105E+00 -.616E+00 0.320E-01
   -.258E+01 0.286E+00 -.805E+00   0.283E+01 -.305E+00 0.806E+00   -.129E+00 0.685E-02 0.563E-02
   -.894E+01 0.282E+01 -.418E+01   0.941E+01 -.315E+01 0.414E+01   -.353E+00 0.197E+00 0.231E-01
   -.199E+01 0.162E+01 -.210E+01   0.239E+01 -.148E+01 0.210E+01   -.494E+00 -.595E-01 0.184E-02
   -.685E+00 -.205E+01 -.349E+01   0.645E+00 0.196E+01 0.349E+01   -.345E-02 0.418E-01 -.523E-02
   0.808E+00 -.758E-01 -.538E+01   -.359E+00 0.204E+00 0.540E+01   -.298E+00 -.525E-01 -.283E-01
   -.252E+02 -.210E+02 -.253E+01   0.290E+02 0.216E+02 0.259E+01   -.344E+01 -.467E+00 -.757E-01
   -.906E+01 -.564E+01 -.549E+01   0.939E+01 0.585E+01 0.546E+01   -.387E+00 -.856E-01 0.126E-01
   -.286E+01 -.303E+01 -.316E+01   0.294E+01 0.284E+01 0.315E+01   -.203E+00 0.144E+00 0.182E-02
   0.473E+01 0.372E+01 -.111E+01   -.479E+01 -.416E+01 0.112E+01   -.120E-01 0.393E+00 -.155E-01
   0.255E+01 0.183E+02 -.406E+00   -.105E+01 -.206E+02 0.484E+00   -.140E+01 0.201E+01 -.687E-01
   -.646E+01 -.851E+00 0.889E+00   0.658E+01 0.826E+00 -.886E+00   0.113E+00 -.243E-01 -.191E-02
   0.454E+01 -.457E+01 0.182E+01   -.464E+01 0.503E+01 -.186E+01   -.773E-01 -.384E+00 0.344E-01
   -.181E+02 0.220E+02 -.328E+01   0.217E+02 -.224E+02 0.314E+01   -.338E+01 0.438E+00 0.154E+00
   0.728E+01 -.221E+02 -.169E+00   -.561E+01 0.242E+02 0.180E+00   -.151E+01 -.201E+01 -.237E-01
   -.163E+01 0.289E+01 0.248E+01   0.170E+01 -.267E+01 -.247E+01   -.184E+00 -.118E+00 0.137E-02
   0.154E+01 0.662E+00 0.287E+01   -.998E+00 -.788E+00 -.289E+01   -.384E+00 0.504E-01 0.265E-01
   -.618E+01 0.174E+00 -.225E+01   0.657E+01 0.993E-01 0.227E+01   -.329E+00 -.294E+00 -.155E-01
   -.521E+01 0.720E+01 0.182E+00   0.568E+01 -.735E+01 -.179E+00   -.516E+00 0.139E+00 0.767E-02
   -.619E-01 0.296E+01 0.187E+01   0.385E-01 -.287E+01 -.187E+01   -.138E-02 -.274E-01 0.517E-02
   -.130E+03 -.540E+01 -.603E+00   0.158E+03 0.547E+01 0.830E+00   -.262E+02 -.483E-02 -.207E+00
   0.371E+01 -.758E+02 -.580E+01   0.542E+01 0.931E+02 0.644E+01   -.873E+01 -.163E+02 -.575E+00
   -.369E+01 -.758E+02 -.606E+01   -.545E+01 0.931E+02 0.671E+01   0.873E+01 -.163E+02 -.585E+00
   -.344E+02 0.959E+02 -.183E+02   0.452E+02 -.115E+03 0.188E+02   -.102E+02 0.185E+02 -.482E+00
   0.344E+02 0.959E+02 -.183E+02   -.452E+02 -.115E+03 0.188E+02   0.102E+02 0.185E+02 -.481E+00
   0.130E+03 -.542E+01 -.534E+00   -.158E+03 0.548E+01 0.759E+00   0.262E+02 -.515E-02 -.204E+00
   0.140E-01 -.145E+03 0.336E+03   -.160E-01 0.138E+03 -.330E+03   0.157E-02 0.416E+01 -.721E+01
   0.253E-01 0.465E+02 -.167E+03   -.251E-01 -.422E+02 0.164E+03   -.129E-02 -.212E+01 0.402E+01
 -----------------------------------------------------------------------------------------------
   0.663E-04 -.744E+01 0.671E+01   0.284E-13 0.853E-13 -.284E-13   -.105E-03 0.646E+01 -.627E+01
 
 
 POSITION                                       TOTAL-FORCE (eV/Angst)
 -----------------------------------------------------------------------------------
      2.82923      0.00379     10.13439         0.111556      0.081231      0.003523
      0.70767      1.24809     10.13472         0.044553     -0.050103     -0.004400
      1.40478      0.00454     10.12941        -0.110473     -0.016329      0.007240
      3.53645      1.24203     10.13016        -0.086199     -0.115305     -0.012939
      2.85911      2.49768     10.12422         0.079689      0.114773     -0.019559
      0.71142      3.71428     10.12726         0.141943     -0.042398     -0.009369
      1.42371      2.48637     10.13387        -0.143386      0.076924     -0.008498
      3.61093      3.72299     10.09211        -0.163754      0.044519     -0.016795
      2.89133      4.98736     10.10414        -0.013642     -0.218346      0.006364
      0.71417      6.15960     10.11417        -0.231240     -0.050304      0.000951
      1.44131      4.93934     10.11653         0.064501     -0.023916     -0.001367
      2.88330      7.33833     10.12438        -0.074043      0.006794     -0.013709
      0.70976      8.60856     10.11494         0.129491      0.092563      0.012601
      1.43925      7.38365     10.11527         0.173754      0.047465     -0.005098
      3.60534      8.60479     10.15349         0.026619      0.033547      0.027022
      2.85145      9.82770     10.13584         0.077247      0.003281      0.012709
      0.70679     11.07809     10.12110         0.022578      0.061130      0.007458
      1.41954      9.83789     10.11950        -0.140163     -0.076651      0.008131
      3.53629     11.07876     10.14280        -0.040054     -0.036949      0.006470
      7.06910     -0.00180     10.14606        -0.122652      0.029372      0.001359
      4.95583      1.23621     10.12857         0.180716      0.094213     -0.022697
      5.65791     -0.00176     10.14600         0.124784      0.030153      0.001016
      7.77135      1.23610     10.12886        -0.181334      0.096587     -0.023247
      7.08264      2.48035     10.09353        -0.045300     -0.075577     -0.002542
      5.64469      2.48037     10.09327         0.040199     -0.074755     -0.002307
      7.08778      9.82092     10.18308         0.268054     -0.061245     -0.000160
      4.95686     11.07342     10.15608         0.102094     -0.112330      0.014254
      5.63939      9.82092     10.18308        -0.265961     -0.057514     -0.000848
      7.77050     11.07333     10.15615        -0.104778     -0.110226      0.014846
     11.32221      0.00437     10.12959         0.113479     -0.012052      0.007338
      9.19072      1.24193     10.13051         0.086533     -0.115892     -0.012639
      9.89782      0.00365     10.13465        -0.112509      0.082061      0.004126
     12.01939      1.24798     10.13479        -0.043315     -0.048548     -0.004072
     11.30355      2.48631     10.13401         0.139881      0.077553     -0.008324
      9.11625      3.72283     10.09257         0.166149      0.046768     -0.017636
      9.86816      2.49760     10.12460        -0.082805      0.113725     -0.020182
     12.01580      3.71429     10.12727        -0.141866     -0.044748     -0.008911
     11.28585      4.93930     10.11652        -0.062705     -0.025056     -0.001053
      9.83582      4.98716     10.10423         0.016302     -0.215109      0.006711
     12.01303      6.15959     10.11413         0.230154     -0.050873      0.001299
     11.28793      7.38360     10.11526        -0.174789      0.047329     -0.004806
      9.12174      8.60462     10.15358        -0.023985      0.034475      0.026880
      9.84388      7.33818     10.12434         0.073172      0.008414     -0.013466
     12.01733      8.60854     10.11504        -0.125922      0.091940      0.011998
     11.30767      9.83785     10.11976         0.140185     -0.077927      0.007472
      9.19106     11.07867     10.14308         0.038720     -0.038890      0.005714
      9.87575      9.82755     10.13611        -0.076967      0.004981      0.012257
     12.02057     11.07799     10.12126        -0.023817      0.062286      0.006805
      3.57451      6.16490     10.10997        -0.221432      0.057193     -0.002879
      4.99429      3.69838     10.04587        -0.343160     -0.436601      0.015916
      7.73291      3.69837     10.04648         0.346308     -0.438838      0.014688
      4.97876      8.61942     10.19950        -0.325903      0.582326     -0.040045
      7.74832      8.61929     10.19952         0.326669      0.584851     -0.040244
      9.15274      6.16475     10.10988         0.218180      0.056114     -0.002226
      6.36381      4.97990      9.55801        -0.000453     -2.124904     -0.718551
      6.36357      7.01402     10.39691        -0.000903      2.088817      0.793419
 -----------------------------------------------------------------------------------
    total drift:                               -0.000016     -0.014546     -0.006493


--------------------------------------------------------------------------------------------------------



  FREE ENERGIE OF THE ION-ELECTRON SYSTEM (eV)
  ---------------------------------------------------
  free  energy   TOTEN  =      -589.14811698 eV

  energy  without entropy=     -589.14755926  energy(sigma->0) =     -589.14783812
 


--------------------------------------------------------------------------------------------------------


    POTLOK:  cpu time    4.2393: real time    4.2437


--------------------------------------------------------------------------------------------------------


 stress matrix after NEB project (eV)
    -41.85349     -0.03086      0.00054
     -0.03086    -40.01128      1.87997
      0.00054      1.87824      0.18334
  FORCES: max atom, RMS     2.243108    0.476413
  FORCE total and by dimension    3.565147    2.124904
  Stress total and by dimension   57.963046   41.853490
 writing wavefunctions
     LOOP+:  cpu time24690.6139: real time24734.9399
    4ORBIT:  cpu time    0.0000: real time    0.0000
 


 total charge     
 
# of ion       s       p       d       tot
------------------------------------------
    1        0.864   1.784   0.000   2.649
    2        0.865   1.767   0.000   2.633
    3        0.867   1.780   0.000   2.646
    4        0.870   1.771   0.000   2.641
    5        0.863   1.764   0.000   2.627
    6        0.864   1.774   0.000   2.638
    7        0.865   1.768   0.000   2.634
    8        0.852   1.722   0.000   2.574
    9        0.854   1.728   0.000   2.582
   10        0.867   1.766   0.000   2.633
   11        0.865   1.764   0.000   2.629
   12        0.855   1.731   0.000   2.585
   13        0.865   1.776   0.000   2.640
   14        0.865   1.769   0.000   2.634
   15        0.855   1.724   0.000   2.580
   16        0.865   1.767   0.000   2.632
   17        0.866   1.770   0.000   2.636
   18        0.865   1.773   0.000   2.639
   19        0.871   1.766   0.000   2.637
   20        0.866   1.795   0.000   2.662
   21        0.869   1.785   0.000   2.654
   22        0.866   1.795   0.000   2.662
   23        0.869   1.785   0.000   2.654
   24        0.860   1.748   0.000   2.608
   25        0.860   1.748   0.000   2.608
   26        0.860   1.741   0.000   2.601
   27        0.868   1.783   0.000   2.652
   28        0.861   1.741   0.000   2.601
   29        0.868   1.783   0.000   2.652
   30        0.867   1.780   0.000   2.646
   31        0.870   1.771   0.000   2.641
   32        0.864   1.784   0.000   2.649
   33        0.865   1.767   0.000   2.633
   34        0.865   1.768   0.000   2.634
   35        0.852   1.722   0.000   2.574
   36        0.863   1.764   0.000   2.627
   37        0.864   1.774   0.000   2.638
   38        0.865   1.763   0.000   2.629
   39        0.854   1.728   0.000   2.582
   40        0.867   1.766   0.000   2.633
   41        0.865   1.769   0.000   2.634
   42        0.855   1.724   0.000   2.580
   43        0.855   1.731   0.000   2.585
   44        0.865   1.776   0.000   2.640
   45        0.865   1.773   0.000   2.639
   46        0.871   1.766   0.000   2.637
   47        0.865   1.767   0.000   2.632
   48        0.866   1.770   0.000   2.636
   49        1.242   2.627   0.000   3.870
   50        1.226   2.671   0.000   3.897
   51        1.226   2.671   0.000   3.897
   52        1.232   2.669   0.000   3.901
   53        1.232   2.669   0.000   3.901
   54        1.242   2.627   0.000   3.870
   55        0.429   0.370   6.334   7.133
   56        0.272   0.233   4.965   5.469
--------------------------------------------------
tot         49.557 101.171  11.299 162.027
 


 magnetization (x)
 
# of ion       s       p       d       tot
------------------------------------------
    1        0.001   0.010   0.000   0.010
    2        0.000   0.003   0.000   0.003
    3       -0.001  -0.010   0.000  -0.011
    4       -0.001  -0.017   0.000  -0.019
    5        0.001   0.006   0.000   0.006
    6        0.000   0.004   0.000   0.004
    7       -0.001  -0.008   0.000  -0.008
    8       -0.003  -0.038   0.000  -0.040
    9        0.001   0.003   0.000   0.004
   10       -0.001  -0.015   0.000  -0.016
   11        0.000  -0.001   0.000  -0.001
   12        0.001   0.007   0.000   0.008
   13        0.001   0.008   0.000   0.009
   14       -0.001  -0.011   0.000  -0.012
   15       -0.001  -0.017   0.000  -0.019
   16        0.001   0.009   0.000   0.010
   17        0.000   0.001   0.000   0.002
   18       -0.001  -0.016   0.000  -0.017
   19       -0.000  -0.004   0.000  -0.004
   20        0.000  -0.000   0.000  -0.000
   21        0.001   0.006   0.000   0.007
   22        0.000  -0.000   0.000  -0.000
   23        0.001   0.006   0.000   0.007
   24        0.000  -0.015   0.000  -0.015
   25        0.000  -0.015   0.000  -0.015
   26        0.001   0.010   0.000   0.011
   27       -0.000  -0.003   0.000  -0.003
   28        0.001   0.010   0.000   0.011
   29       -0.000  -0.003   0.000  -0.003
   30       -0.001  -0.010   0.000  -0.011
   31       -0.001  -0.017   0.000  -0.019
   32        0.001   0.010   0.000   0.010
   33        0.000   0.003   0.000   0.003
   34       -0.001  -0.008   0.000  -0.008
   35       -0.003  -0.038   0.000  -0.040
   36        0.001   0.006   0.000   0.006
   37        0.000   0.004   0.000   0.004
   38        0.000  -0.001   0.000  -0.001
   39        0.001   0.003   0.000   0.004
   40       -0.001  -0.015   0.000  -0.016
   41       -0.001  -0.011   0.000  -0.012
   42       -0.001  -0.017   0.000  -0.019
   43        0.001   0.007   0.000   0.008
   44        0.001   0.008   0.000   0.009
   45       -0.001  -0.016   0.000  -0.017
   46       -0.000  -0.004   0.000  -0.004
   47        0.001   0.009   0.000   0.010
   48        0.000   0.001   0.000   0.002
   49       -0.006  -0.094   0.000  -0.099
   50       -0.006  -0.045   0.000  -0.050
   51       -0.006  -0.045   0.000  -0.050
   52       -0.000   0.001   0.000   0.001
   53       -0.000   0.001   0.000   0.001
   54       -0.006  -0.094   0.000  -0.099
   55       -0.043  -0.039   1.450   1.368
   56       -0.007  -0.013   4.220   4.200
--------------------------------------------------
tot         -0.075  -0.504   5.670   5.091
 

 total amount of memory used by VASP MPI-rank0   215304. kBytes
=======================================================================

   base      :      30000. kBytes
   nonl-proj :       6977. kBytes
   fftplans  :      17535. kBytes
   grid      :      46049. kBytes
   one-center:         93. kBytes
   HF        :         46. kBytes
   nonlr-proj:      14845. kBytes
   wavefun   :      99759. kBytes
 
  
  
 General timing and accounting informations for this job:
 ========================================================
  
                  Total CPU time used (sec):    24740.801
                            User time (sec):    24706.469
                          System time (sec):       34.331
                         Elapsed time (sec):    24791.364
  
                   Maximum memory used (kb):      478112.
                   Average memory used (kb):           0.
  
                          Minor page faults:      1393551
                          Major page faults:          219
                 Voluntary context switches:       308651
