 vasp.5.4.4.18Apr17-6-g9f103f2a35 (build Feb 25 2019 10:51:38) complex          
  
 executed on             LinuxIFC date 2021.07.24  11:05:31
 running on   32 total cores
 distrk:  each k-point on   32 cores,    1 groups
 distr:  one band on NCORES_PER_BAND=  32 cores,    1 groups


--------------------------------------------------------------------------------------------------------


 INCAR:
 POTCAR:    PAW_PBE C 08Apr2002                   
 POTCAR:    PAW_PBE N 08Apr2002                   
 POTCAR:    PAW_PBE Co 02Aug2007                  
 POTCAR:    PAW_PBE Fe 06Sep2000                  

 ----------------------------------------------------------------------------- 
|                                                                             |
|           W    W    AA    RRRRR   N    N  II  N    N   GGGG   !!!           |
|           W    W   A  A   R    R  NN   N  II  NN   N  G    G  !!!           |
|           W    W  A    A  R    R  N N  N  II  N N  N  G       !!!           |
|           W WW W  AAAAAA  RRRRR   N  N N  II  N  N N  G  GGG   !            |
|           WW  WW  A    A  R   R   N   NN  II  N   NN  G    G                |
|           W    W  A    A  R    R  N    N  II  N    N   GGGG   !!!           |
|                                                                             |
|      For optimal performance we recommend to set                            |
|        NCORE= 4 - approx SQRT( number of cores)                             |
|      NCORE specifies how many cores store one orbital (NPAR=cpu/NCORE).     |
|      This setting can  greatly improve the performance of VASP for DFT.     |
|      The default,   NCORE=1            might be grossly inefficient         |
|      on modern multi-core architectures or massively parallel machines.     |
|      Do your own testing !!!!                                               |
|      Unfortunately you need to use the default for GW and RPA calculations. |
|      (for HF NCORE is supported but not extensively tested yet)             |
|                                                                             |
 ----------------------------------------------------------------------------- 

 POTCAR:    PAW_PBE C 08Apr2002                   
   VRHFIN =C: s2p2                                                              
   LEXCH  = PE                                                                  
   EATOM  =   147.1560 eV,   10.8157 Ry                                         
                                                                                
   TITEL  = PAW_PBE C 08Apr2002                                                 
   LULTRA =        F    use ultrasoft PP ?                                      
   IUNSCR =        1    unscreen: 0-lin 1-nonlin 2-no                           
   RPACOR =    1.200    partial core radius                                     
   POMASS =   12.011; ZVAL   =    4.000    mass and valenz                      
   RCORE  =    1.500    outmost cutoff radius                                   
   RWIGS  =    1.630; RWIGS  =    0.863    wigner-seitz radius (au A)           
   ENMAX  =  400.000; ENMIN  =  300.000 eV                                      
   ICORE  =        2    local potential                                         
   LCOR   =        T    correct aug charges                                     
   LPAW   =        T    paw PP                                                  
   EAUG   =  644.873                                                            
   DEXC   =    0.000                                                            
   RMAX   =    1.529    core radius for proj-oper                               
   RAUG   =    1.300    factor for augmentation sphere                          
   RDEP   =    1.501    radius for radial grids                                 
   RDEPT  =    1.300    core radius for aug-charge                              
                                                                                
   Atomic configuration                                                         
    4 entries                                                                   
     n  l   j            E        occ.                                          
     1  0  0.50      -273.3789   2.0000                                         
     2  0  0.50       -13.7508   2.0000                                         
     2  1  0.50        -5.2854   2.0000                                         
     3  2  1.50        -5.4423   0.0000                                         
   Description                                                                  
     l       E           TYP  RCUT    TYP  RCUT                                 
     0    -13.7508458     23  1.200                                             
     0     -8.2022199     23  1.200                                             
     1     -5.2854383     23  1.500                                             
     1     34.0145650     23  1.500                                             
     2     -5.4423304      7  1.500                                             
  local pseudopotential read in
  partial core-charges read in
  partial kinetic energy density read in
  atomic valenz-charges read in
  non local Contribution for L=           0  read in
    real space projection operators read in
  non local Contribution for L=           0  read in
    real space projection operators read in
  non local Contribution for L=           1  read in
    real space projection operators read in
  non local Contribution for L=           1  read in
    real space projection operators read in
    PAW grid and wavefunctions read in
 
   number of l-projection  operators is LMAX  =           4
   number of lm-projection operators is LMMAX =           8
 
 POTCAR:    PAW_PBE N 08Apr2002                   
   VRHFIN =N: s2p3                                                              
   LEXCH  = PE                                                                  
   EATOM  =   264.5486 eV,   19.4438 Ry                                         
                                                                                
   TITEL  = PAW_PBE N 08Apr2002                                                 
   LULTRA =        F    use ultrasoft PP ?                                      
   IUNSCR =        1    unscreen: 0-lin 1-nonlin 2-no                           
   RPACOR =    1.200    partial core radius                                     
   POMASS =   14.001; ZVAL   =    5.000    mass and valenz                      
   RCORE  =    1.500    outmost cutoff radius                                   
   RWIGS  =    1.400; RWIGS  =    0.741    wigner-seitz radius (au A)           
   ENMAX  =  400.000; ENMIN  =  300.000 eV                                      
   ICORE  =        2    local potential                                         
   LCOR   =        T    correct aug charges                                     
   LPAW   =        T    paw PP                                                  
   EAUG   =  627.112                                                            
   DEXC   =    0.000                                                            
   RMAX   =    1.529    core radius for proj-oper                               
   RAUG   =    1.300    factor for augmentation sphere                          
   RDEP   =    1.514    radius for radial grids                                 
   RDEPT  =    1.338    core radius for aug-charge                              
                                                                                
   Atomic configuration                                                         
    4 entries                                                                   
     n  l   j            E        occ.                                          
     1  0  0.50      -384.7179   2.0000                                         
     2  0  0.50       -18.5828   2.0000                                         
     2  1  0.50        -7.0898   3.0000                                         
     3  2  1.50        -6.8029   0.0000                                         
   Description                                                                  
     l       E           TYP  RCUT    TYP  RCUT                                 
     0    -18.5828119     23  1.200                                             
     0    -13.5018863     23  1.200                                             
     1     -7.0897853     23  1.500                                             
     1      9.5240782     23  1.500                                             
     2     -6.8029130      7  1.500                                             
  local pseudopotential read in
  partial core-charges read in
  partial kinetic energy density read in
  atomic valenz-charges read in
  non local Contribution for L=           0  read in
    real space projection operators read in
  non local Contribution for L=           0  read in
    real space projection operators read in
  non local Contribution for L=           1  read in
    real space projection operators read in
  non local Contribution for L=           1  read in
    real space projection operators read in
    PAW grid and wavefunctions read in
 
   number of l-projection  operators is LMAX  =           4
   number of lm-projection operators is LMMAX =           8
 
 POTCAR:    PAW_PBE Co 02Aug2007                  
   VRHFIN =Co: d8 s1                                                            
   LEXCH  = PE                                                                  
   EATOM  =   813.3670 eV,   59.7808 Ry                                         
                                                                                
   TITEL  = PAW_PBE Co 02Aug2007                                                
   LULTRA =        F    use ultrasoft PP ?                                      
   IUNSCR =        1    unscreen: 0-lin 1-nonlin 2-no                           
   RPACOR =    2.000    partial core radius                                     
   POMASS =   58.933; ZVAL   =    9.000    mass and valenz                      
   RCORE  =    2.300    outmost cutoff radius                                   
   RWIGS  =    2.460; RWIGS  =    1.302    wigner-seitz radius (au A)           
   ENMAX  =  267.968; ENMIN  =  200.976 eV                                      
   RCLOC  =    1.203    cutoff for local pot                                    
   LCOR   =        T    correct aug charges                                     
   LPAW   =        T    paw PP                                                  
   EAUG   =  477.818                                                            
   DEXC   =    0.000                                                            
   RMAX   =    2.360    core radius for proj-oper                               
   RAUG   =    1.300    factor for augmentation sphere                          
   RDEP   =    2.393    radius for radial grids                                 
   RDEPT  =    1.864    core radius for aug-charge                              
                                                                                
   Atomic configuration                                                         
    9 entries                                                                   
     n  l   j            E        occ.                                          
     1  0  0.50     -7587.6674   2.0000                                         
     2  0  0.50      -893.6084   2.0000                                         
     2  1  1.50      -764.5805   6.0000                                         
     3  0  0.50       -97.5973   2.0000                                         
     3  1  1.50       -60.9648   6.0000                                         
     3  2  2.50        -4.2382   8.0000                                         
     4  0  0.50        -4.3746   1.0000                                         
     4  1  1.50        -4.0817   0.0000                                         
     4  3  2.50        -1.3606   0.0000                                         
   Description                                                                  
     l       E           TYP  RCUT    TYP  RCUT                                 
     2     -4.2382362     23  2.300                                             
     2     -5.5988188     23  2.300                                             
     0     -4.3745797     23  2.300                                             
     0      5.7660125     23  2.300                                             
     1     -2.7211652     23  2.300                                             
     1     16.9860234     23  2.300                                             
  local pseudopotential read in
  partial core-charges read in
  partial kinetic energy density read in
  atomic valenz-charges read in
  non local Contribution for L=           2  read in
    real space projection operators read in
  non local Contribution for L=           2  read in
    real space projection operators read in
  non local Contribution for L=           0  read in
    real space projection operators read in
  non local Contribution for L=           0  read in
    real space projection operators read in
  non local Contribution for L=           1  read in
    real space projection operators read in
  non local Contribution for L=           1  read in
    real space projection operators read in
    PAW grid and wavefunctions read in
 
   number of l-projection  operators is LMAX  =           6
   number of lm-projection operators is LMMAX =          18
 
 POTCAR:    PAW_PBE Fe 06Sep2000                  
   VRHFIN =Fe:  d7 s1                                                           
   LEXCH  = PE                                                                  
   EATOM  =   594.3153 eV,   43.6809 Ry                                         
                                                                                
   TITEL  = PAW_PBE Fe 06Sep2000                                                
   LULTRA =        F    use ultrasoft PP ?                                      
   IUNSCR =        1    unscreen: 0-lin 1-nonlin 2-no                           
   RPACOR =    2.000    partial core radius                                     
   POMASS =   55.847; ZVAL   =    8.000    mass and valenz                      
   RCORE  =    2.300    outmost cutoff radius                                   
   RWIGS  =    2.460; RWIGS  =    1.302    wigner-seitz radius (au A)           
   ENMAX  =  267.882; ENMIN  =  200.911 eV                                      
   RCLOC  =    1.701    cutoff for local pot                                    
   LCOR   =        T    correct aug charges                                     
   LPAW   =        T    paw PP                                                  
   EAUG   =  511.368                                                            
   DEXC   =    0.000                                                            
   RMAX   =    2.356    core radius for proj-oper                               
   RAUG   =    1.300    factor for augmentation sphere                          
   RDEP   =    2.442    radius for radial grids                                 
   RDEPT  =    1.890    core radius for aug-charge                              
                                                                                
   Atomic configuration                                                         
    9 entries                                                                   
     n  l   j            E        occ.                                          
     1  0  0.50     -6993.8440   2.0000                                         
     2  0  0.50      -814.6047   2.0000                                         
     2  1  1.50      -693.3689   6.0000                                         
     3  0  0.50       -89.4732   2.0000                                         
     3  1  1.50       -55.6373   6.0000                                         
     3  2  2.50        -3.8151   7.0000                                         
     4  0  0.50        -4.2551   1.0000                                         
     4  1  1.50        -3.4015   0.0000                                         
     4  3  2.50        -1.3606   0.0000                                         
   Description                                                                  
     l       E           TYP  RCUT    TYP  RCUT                                 
     2     -3.8151135     23  2.300                                             
     2     -5.1756961     23  2.300                                             
     0     -4.2550963     23  2.300                                             
     0      7.2035603     23  2.300                                             
     1     -2.7211652     23  2.300                                             
     1     18.4316424     23  2.300                                             
  local pseudopotential read in
  partial core-charges read in
  partial kinetic energy density read in
  atomic valenz-charges read in
  non local Contribution for L=           2  read in
    real space projection operators read in
  non local Contribution for L=           2  read in
    real space projection operators read in
  non local Contribution for L=           0  read in
    real space projection operators read in
  non local Contribution for L=           0  read in
    real space projection operators read in
  non local Contribution for L=           1  read in
    real space projection operators read in
  non local Contribution for L=           1  read in
    real space projection operators read in
    PAW grid and wavefunctions read in
 
   number of l-projection  operators is LMAX  =           6
   number of lm-projection operators is LMMAX =          18
 

 ----------------------------------------------------------------------------- 
|                                                                             |
|  ADVICE TO THIS USER RUNNING 'VASP/VAMP'   (HEAR YOUR MASTER'S VOICE ...):  |
|                                                                             |
|      You have a (more or less) 'large supercell' and for larger cells       |
|      it might be more efficient to use real space projection opertators     |
|      So try LREAL= Auto  in the INCAR   file.                               |
|      Mind:          For very  accurate calculation you might also keep the  |
|      reciprocal projection scheme          (i.e. LREAL=.FALSE.)             |
|                                                                             |
 ----------------------------------------------------------------------------- 

  PAW_PBE C 08Apr2002                   :
 energy of atom  1       EATOM= -147.1560
 kinetic energy error for atom=    0.0076 (will be added to EATOM!!)
  PAW_PBE N 08Apr2002                   :
 energy of atom  2       EATOM= -264.5486
 kinetic energy error for atom=    0.0138 (will be added to EATOM!!)
  PAW_PBE Co 02Aug2007                  :
 energy of atom  3       EATOM= -813.3670
 kinetic energy error for atom=    0.0028 (will be added to EATOM!!)
  PAW_PBE Fe 06Sep2000                  :
 energy of atom  4       EATOM= -594.3153
 kinetic energy error for atom=    0.0026 (will be added to EATOM!!)
 
 
 POSCAR:  C  N Co Fe                             
  positions in cartesian coordinates
  No initial velocities read in
 exchange correlation table for  LEXCH =        8
   RHO(1)=    0.500       N(1)  =     2000
   RHO(2)=  100.500       N(2)  =     4000

 VTST: version 3.2, (02/03/18)

 CHAIN: initializing optimizer
 
 OPT: Using VASP Conjugate-Gradient optimizer
 CHAIN: Read ICHAIN            0
 
 POSCAR:  C  N Co Fe                             
  positions in cartesian coordinates
  No initial velocities read in
 


--------------------------------------------------------------------------------------------------------


 ion  position               nearest neighbor table
   1  0.222  0.998  0.500-   3 1.41  17 1.42   4 1.42
   2  0.054  0.098  0.500-  34 1.41   7 1.43   3 1.44
   3  0.110  0.998  0.500-   1 1.41  15 1.43   2 1.44
   4  0.276  0.097  0.500-  19 1.41   5 1.42   1 1.42
   5  0.220  0.195  0.500-   7 1.41   4 1.42   8 1.42
   6  0.054  0.297  0.500-  38 1.42   7 1.43  10 1.44
   7  0.109  0.197  0.500-   5 1.41   2 1.43   6 1.43
   8  0.276  0.294  0.500-  55 1.38   5 1.42  52 1.43  57 2.50
   9  0.060  0.498  0.500-  42 1.43  12 1.45  10 1.46
  10  0.114  0.395  0.500-  55 1.35   6 1.44   9 1.46
  11  0.060  0.698  0.500-  46 1.42  16 1.43  12 1.46
  12  0.118  0.597  0.500-  51 1.43   9 1.45  11 1.46
  13  0.280  0.702  0.500-  51 1.41  14 1.42  25 1.43
  14  0.224  0.800  0.500-  16 1.41  13 1.42  17 1.43
  15  0.056  0.898  0.500-  50 1.41   3 1.43  16 1.44
  16  0.112  0.799  0.500-  14 1.41  11 1.43  15 1.44
  17  0.278  0.900  0.500-  28 1.41   1 1.42  14 1.43
  18  0.556  0.999  0.500-  20 1.42  30 1.42  21 1.42
  19  0.387  0.098  0.500-   4 1.41  23 1.43  20 1.43
  20  0.444  0.999  0.500-  18 1.42  28 1.42  19 1.43
  21  0.610  0.099  0.500-  32 1.41  22 1.42  18 1.42
  22  0.554  0.197  0.500-  53 1.41  21 1.42  23 1.43
  23  0.441  0.198  0.500-  19 1.43  22 1.43  52 1.43
  24  0.557  0.606  0.500-  56 1.39  26 1.42  54 1.42  58 2.51
  25  0.393  0.700  0.500-  29 1.43  54 1.43  13 1.43
  26  0.613  0.704  0.500-  44 1.41  27 1.42  24 1.42
  27  0.557  0.802  0.500-  29 1.41  26 1.42  30 1.42
  28  0.390  0.900  0.500-  17 1.41  20 1.42  29 1.43
  29  0.446  0.801  0.500-  27 1.41  25 1.43  28 1.43
  30  0.612  0.901  0.500-  48 1.41  18 1.42  27 1.42
  31  0.889  1.000  0.500-  33 1.41  34 1.43  50 1.44
  32  0.722  0.101  0.500-  21 1.41  37 1.43  33 1.44
  33  0.778  0.001  0.500-  31 1.41  48 1.43  32 1.44
  34  0.942  0.100  0.500-   2 1.41  31 1.43  35 1.44
  35  0.886  0.200  0.500-  37 1.42  38 1.43  34 1.44
  36  0.716  0.302  0.500-  53 1.43  41 1.45  37 1.46
  37  0.774  0.202  0.500-  35 1.42  32 1.43  36 1.46
  38  0.942  0.300  0.500-   6 1.42  35 1.43  39 1.44
  39  0.887  0.400  0.500-  41 1.43  38 1.44  42 1.45
  40  0.720  0.504  0.500-  56 1.35  45 1.44  41 1.46
  41  0.774  0.402  0.500-  39 1.43  36 1.45  40 1.46
  42  0.947  0.499  0.500-   9 1.43  43 1.44  39 1.45
  43  0.892  0.600  0.500-  45 1.42  46 1.43  42 1.44
  44  0.725  0.702  0.500-  26 1.41  49 1.43  45 1.43
  45  0.780  0.602  0.500-  43 1.42  44 1.43  40 1.44
  46  0.947  0.699  0.500-  11 1.42  43 1.43  47 1.44
  47  0.891  0.799  0.500-  49 1.41  50 1.43  46 1.44
  48  0.724  0.901  0.500-  30 1.41  33 1.43  49 1.44
  49  0.780  0.801  0.500-  47 1.41  44 1.43  48 1.44
  50  0.945  0.899  0.500-  15 1.41  47 1.43  31 1.44
  51  0.231  0.601  0.500-  13 1.41  12 1.43  57 1.91
  52  0.389  0.300  0.500-   8 1.43  23 1.43  58 2.03  57 2.44
  53  0.603  0.298  0.500-  22 1.41  36 1.43  58 1.94
  54  0.445  0.599  0.500-  24 1.42  25 1.43  57 2.04  58 2.43
  55  0.221  0.389  0.500-  10 1.35   8 1.38  57 1.83
  56  0.614  0.511  0.500-  40 1.35  24 1.39  58 1.87
  57  0.329  0.485  0.500-  55 1.83  51 1.91  54 2.04  58 2.36  52 2.44   8 2.50
  58  0.502  0.414  0.501-  56 1.87  53 1.94  52 2.03  57 2.36  54 2.43  24 2.51
 
  LATTYP: Found a triclinic cell.
 ALAT       =    34.4741461717
 B/A-ratio  =     0.3636928363
 C/A-ratio  =     0.5808613765
 COS(alpha) =     0.0000802851
 COS(beta)  =     0.5811638476
 COS(gamma) =     0.7263586443
  
  Lattice vectors:
  
 A1 = (  12.5934643286, -25.0775393611, -20.0246955050)
 A2 = (  -0.0366757521, -12.5379463585,   0.0000000000)
 A3 = (   0.0133158327,  -0.0016466440, -20.0246955050)


Analysis of symmetry for initial positions (statically):
=====================================================================
 Subroutine PRICEL returns:
 Original cell was already a primitive cell.
 

 Routine SETGRP: Setting up the symmetry group for a 
 triclinic supercell.


 Subroutine GETGRP returns: Found  1 space group operations
 (whereof  1 operations were pure point group operations)
 out of a pool of  2 trial point group operations.


The static configuration has the point symmetry C_1 .


Analysis of symmetry for dynamics (positions and initial velocities):
=====================================================================
 Subroutine PRICEL returns:
 Original cell was already a primitive cell.
 

 Routine SETGRP: Setting up the symmetry group for a 
 triclinic supercell.


 Subroutine GETGRP returns: Found  1 space group operations
 (whereof  1 operations were pure point group operations)
 out of a pool of  2 trial point group operations.


The dynamic configuration has the point symmetry C_1 .


Analysis of structural, dynamic, and magnetic symmetry:
=====================================================================
 Subroutine PRICEL returns:
 Original cell was already a primitive cell.
 

 Routine SETGRP: Setting up the symmetry group for a 
 triclinic supercell.


 Subroutine GETGRP returns: Found  1 space group operations
 (whereof  1 operations were pure point group operations)
 out of a pool of  2 trial point group operations.


The magnetic configuration has the point symmetry C_1 .


 Subroutine INISYM returns: Found  1 space group operations
 (whereof  1 operations are pure point group operations),
 and found     1 'primitive' translations

 
 
 KPOINTS: KPOINTS created by Atomic Simulation Env

Automatic generation of k-mesh.
Space group operators:
 irot       det(A)        alpha          n_x          n_y          n_z        tau_x        tau_y        tau_z
    1     1.000000     0.000000     1.000000     0.000000     0.000000     0.000000     0.000000     0.000000
 
 Subroutine IBZKPT returns following result:
 ===========================================
 
 Found      2 irreducible k-points:
 
 Following reciprocal coordinates:
            Coordinates               Weight
  0.250000  0.250000 -0.000000      2.000000
 -0.250000  0.250000 -0.000000      2.000000
 
 Following cartesian coordinates:
            Coordinates               Weight
  0.019757  0.019882  0.000012      2.000000
 -0.019757  0.019997 -0.000015      2.000000
 
 
 Subroutine IBZKPT_HF returns following result:
 ==============================================
 
 Found      4 k-points in 1st BZ
 the following      4 k-points will be used (e.g. in the exchange kernel)
 Following reciprocal coordinates:   # in IRBZ
  0.250000  0.250000 -0.000000    0.25000000   1 t-inv F
 -0.250000  0.250000 -0.000000    0.25000000   2 t-inv F
 -0.250000 -0.250000  0.000000    0.25000000   1 t-inv T
  0.250000 -0.250000  0.000000    0.25000000   2 t-inv T


--------------------------------------------------------------------------------------------------------




 Dimension of arrays:
   k-points           NKPTS =      2   k-points in BZ     NKDIM =      4   number of bands    NBANDS=    155
   number of dos      NEDOS =    301   number of ions     NIONS =     58
   non local maximal  LDIM  =      6   non local SUM 2l+1 LMDIM =     18
   total plane-waves  NPLWV = ******
   max r-space proj   IRMAX =      1   max aug-charges    IRDMAX=  17359
   dimension x,y,z NGX =    96 NGY =   96 NGZ =  150
   dimension x,y,z NGXF=   192 NGYF=  192 NGZF=  300
   support grid    NGXF=   192 NGYF=  192 NGZF=  300
   ions per type =              54   2   1   1
   NGX,Y,Z   is equivalent  to a cutoff of  12.61, 12.73, 12.45 a.u.
   NGXF,Y,Z  is equivalent  to a cutoff of  25.23, 25.46, 24.91 a.u.

 SYSTEM =  unknown system                          
 POSCAR =   C  N Co Fe                             

 Startparameter for this run:
   NWRITE =      2    write-flag & timer
   PREC   = accura    normal or accurate (medium, high low for compatibility)
   ISTART =      1    job   : 0-new  1-cont  2-samecut
   ICHARG =      0    charge: 1-file 2-atom 10-const
   ISPIN  =      2    spin polarized calculation?
   LNONCOLLINEAR =      F non collinear calculations
   LSORBIT =      F    spin-orbit coupling
   INIWAV =      1    electr: 0-lowe 1-rand  2-diag
   LASPH  =      T    aspherical Exc in radial PAW
   METAGGA=      F    non-selfconsistent MetaGGA calc.

 Electronic Relaxation 1
   ENCUT  =  500.0 eV  36.75 Ry    6.06 a.u.  23.07 22.86 36.51*2*pi/ulx,y,z
   ENINI  =  500.0     initial cutoff
   ENAUG  =  644.9 eV  augmentation charge cutoff
   NELM   =    250;   NELMIN=  2; NELMDL=  0     # of ELM steps 
   EDIFF  = 0.1E-03   stopping-criterion for ELM
   LREAL  =      F    real-space projection
   NLSPLINE    = F    spline interpolate recip. space projectors
   LCOMPAT=      F    compatible to vasp.4.4
   GGA_COMPAT  = T    GGA compatible to vasp.4.4-vasp.4.6
   LMAXPAW     = -100 max onsite density
   LMAXMIX     =    2 max onsite mixed and CHGCAR
   VOSKOWN=      0    Vosko Wilk Nusair interpolation
   ROPT   =    0.00000   0.00000   0.00000   0.00000
 Ionic relaxation
   EDIFFG = -.3E-01   stopping-criterion for IOM
   NSW    =      0    number of steps for IOM
   NBLOCK =      1;   KBLOCK =      1    inner block; outer block 
   IBRION =     -1    ionic relax: 0-MD 1-quasi-New 2-CG
   NFREE  =      1    steps in history (QN), initial steepest desc. (CG)
   ISIF   =      2    stress and relaxation
   IWAVPR =     10    prediction:  0-non 1-charg 2-wave 3-comb
   ISYM   =      3    0-nonsym 1-usesym 2-fastsym
   LCORR  =      T    Harris-Foulkes like correction to forces

   POTIM  = 0.5000    time-step for ionic-motion
   TEIN   =    0.0    initial temperature
   TEBEG  =    0.0;   TEEND  =   0.0 temperature during run
   SMASS  =  -3.00    Nose mass-parameter (am)
   estimated Nose-frequenzy (Omega)   =  0.10E-29 period in steps =****** mass=  -0.366E-26a.u.
   SCALEE = 1.0000    scale energy and forces
   NPACO  =    256;   APACO  = 16.0  distance and # of slots for P.C.
   PSTRESS=    0.0 pullay stress

  Mass of Ions in am
   POMASS =  12.01 14.00 58.93 55.85
  Ionic Valenz
   ZVAL   =   4.00  5.00  9.00  8.00
  Atomic Wigner-Seitz radii
   RWIGS  =  -1.00 -1.00 -1.00 -1.00
  virtual crystal weights 
   VCA    =   1.00  1.00  1.00  1.00
   NELECT =     243.0000    total number of electrons
   NUPDOWN=      -1.0000    fix difference up-down

 DOS related values:
   EMIN   =  10.00;   EMAX   =-10.00  energy-range for DOS
   EFERMI =   0.00
   ISMEAR =     0;   SIGMA  =   0.10  broadening in eV -4-tet -1-fermi 0-gaus

 Electronic relaxation 2 (details)
   IALGO  =     53    algorithm
   LDIAG  =      T    sub-space diagonalisation (order eigenvalues)
   LSUBROT=      F    optimize rotation matrix (better conditioning)
   TURBO    =      0    0=normal 1=particle mesh
   IRESTART =      0    0=no restart 2=restart with 2 vectors
   NREBOOT  =      0    no. of reboots
   NMIN     =      0    reboot dimension
   EREF     =   0.00    reference energy to select bands
   IMIX   =      4    mixing-type and parameters
     AMIX     =   0.40;   BMIX     =  1.00
     AMIX_MAG =   1.60;   BMIX_MAG =  1.00
     AMIN     =   0.10
     WC   =   100.;   INIMIX=   1;  MIXPRE=   1;  MAXMIX= -45

 Intra band minimization:
   WEIMIN = 0.0000     energy-eigenvalue tresh-hold
   EBREAK =  0.16E-06  absolut break condition
   DEPER  =   0.30     relativ break condition  

   TIME   =   0.20     timestep for ELM

  volume/ion in A,a.u.               =      54.77       369.63
  Fermi-wavevector in a.u.,A,eV,Ry     =   0.694932  1.313232  6.570677  0.482931
  Thomas-Fermi vector in A             =   1.777564
 
 Write flags
   LWAVE        =      T    write WAVECAR
   LDOWNSAMPLE  =      F    k-point downsampling of WAVECAR
   LCHARG       =      T    write CHGCAR
   LVTOT        =      F    write LOCPOT, total local potential
   LVHAR        =      F    write LOCPOT, Hartree potential only
   LELF         =      F    write electronic localiz. function (ELF)
   LORBIT       =     11    0 simple, 1 ext, 2 COOP (PROOUT), +10 PAW based schemes


 Dipole corrections
   LMONO  =      F    monopole corrections only (constant potential shift)
   LDIPOL =      T    correct potential (dipole corrections)
   IDIPOL =      3    1-x, 2-y, 3-z, 4-all directions 
   EPSILON=  1.0000000 bulk dielectric constant

 Exchange correlation treatment:
   GGA     =    PE    GGA type
   LEXCH   =     8    internal setting for exchange type
   VOSKOWN=      0    Vosko Wilk Nusair interpolation
   EXXOEP  =     0    0=HF, 1=EXX-LHF (local Hartree Fock) 2=EXX OEP
   LHFCALC =     T    Hartree Fock is set to
   LSYMGRAD=     F    symmetrize gradient (conserves proper symmetry)
   PRECFOCK=normal    Normal, Fast or Accurate (Low or Medium for compatibility)
   LRHFCALC=     F    long range Hartree Fock
   LRSCOR  =     F    long range correlation only (use DFT for short range part)
   LTHOMAS =     F    Thomas Fermi screening in HF
   LMODELHF=     F    short range full HF, long range fraction AEXX
   ENCUT4O =  -1.0   cutoff for four orbital integrals eV
   LMAXFOCK=     4    L truncation for augmentation on plane wave grid
   LMAXFOCKAE=  -1    L truncation for all-electron charge restoration on plane wave grid
   NMAXFOCKAE=   1    number of basis functions for all-electron charge restoration
   LFOCKAEDFT=     F  apply the AE augmentation even for DFT
   NKREDX  =     1    reduce k-point grid by
   NKREDY  =     1    reduce k-point grid by
   NKREDZ  =     1    reduce k-point grid by
   SHIFTRED=     F    shift reduced grid of Gamma
   HFKIDENT=     F    idential grid for each k-point
   ODDONLY =     F    use only odd q-grid points
   EVENONLY=     F    use only even q-grid points
   HFALPHA =   -1.0000 decay constant for conv. correction
   MCALPHA =    0.0000 extent of test-charge in conv. correction in multipole expansion
   AEXX    =    0.2500 exact exchange contribution
   HFSCREEN=    0.2000 screening length (either q_TF or 0.3 A-1)
   HFSCREENC=   0.2000 screening length for correlation (either q_TF or 0.3 A-1)
   HFRCUT  =    0.0000 spherical cutoff for potential kernel
   ALDAX   =    0.7500 LDA exchange part
   AGGAX   =    0.7500 GGA exchange part
   ALDAC   =    1.0000 LDA correlation
   AGGAC   =    1.0000 GGA correlation
   ENCUTFOCK=  -1.0 apply spherical cutoff to Coloumb kernel
   NBANDSGWLOW=     1    first orbital included in HF term
   NBLOCK_FOCK=    64    blocking factor in FOCK_ACC
 Linear response parameters
   LEPSILON=     F    determine dielectric tensor
   LRPA    =     F    only Hartree local field effects (RPA)
   LNABLA  =     F    use nabla operator in PAW spheres
   LVEL    =     F    velocity operator in full k-point grid
   LINTERFAST=   F  fast interpolation
   KINTER  =     0    interpolate to denser k-point grid
   CSHIFT  =0.1000    complex shift for real part using Kramers Kronig
   OMEGAMAX=  -1.0    maximum frequency
   DEG_THRESHOLD= 0.2000000E-02 threshold for treating states as degnerate
   RTIME   =   -0.100 relaxation time in fs
  (WPLASMAI=    0.000 imaginary part of plasma frequency in eV, 0.658/RTIME)
   DFIELD  = 0.0000000 0.0000000 0.0000000 field for delta impulse in time
 
 Orbital magnetization related:
   ORBITALMAG=     F  switch on orbital magnetization
   LCHIMAG   =     F  perturbation theory with respect to B field
   DQ        =  0.001000  dq finite difference perturbation B field
   LLRAUG    =     F  two centre corrections for induced B field



--------------------------------------------------------------------------------------------------------


 Static calculation
 charge density and potential will be updated during run
 spin polarized calculation
 Conjugate gradient for all bands (Freysoldt, et al. PRB 79, 241103 (2009))
 perform sub-space diagonalisation
    before iterative eigenvector-optimisation
 modified Broyden-mixing scheme, WC =      100.0
 initial mixing is a Kerker type mixing with AMIX =  0.4000 and BMIX =      1.0000
 Hartree-type preconditioning will be used
 using additional bands           33
 reciprocal scheme for non local part
 use partial core corrections
 no Harris-corrections to forces 
 use gradient corrections 
 use of overlap-Matrix (Vanderbilt PP)
 Gauss-broadening in eV      SIGMA  =   0.10


--------------------------------------------------------------------------------------------------------


  energy-cutoff  :      500.00
  volume of cell :     3176.90
      direct lattice vectors                 reciprocal lattice vectors
    12.653500000  0.000000000  0.000000000     0.079029518 -0.000231176  0.000052571
     0.036675752 12.537946359  0.000000000     0.000000000  0.079757878 -0.000006559
    -0.013315833  0.001646644 20.024695505     0.000000000  0.000000000  0.049938337

  length of vectors
    12.653500000 12.538000000 20.024700000     0.079029873  0.079757879  0.049938337


 
 old parameters found on file WAVECAR:
  energy-cutoff  :      500.00
  volume of cell :     3176.90
      direct lattice vectors                 reciprocal lattice vectors
    12.653500000  0.000000000  0.000000000     0.079029518 -0.000231176  0.000052571
     0.036675752 12.537946359  0.000000000     0.000000000  0.079757878 -0.000006559
    -0.013315833  0.001646644 20.024695505     0.000000000  0.000000000  0.049938337

  length of vectors

 
 k-points in units of 2pi/SCALE and weight: KPOINTS created by Atomic Simulation Env
   0.01975738  0.01988168  0.00001150       0.500
  -0.01975738  0.01999726 -0.00001478       0.500
 
 k-points in reciprocal lattice and weights: KPOINTS created by Atomic Simulation Env
   0.25000000  0.25000000 -0.00000000       0.500
  -0.25000000  0.25000000 -0.00000000       0.500
 
 position of ions in fractional coordinates (direct lattice) 
   0.22153294  0.99788024  0.49994260
   0.05390855  0.09806129  0.49995122
   0.10988732  0.99832776  0.49994816
   0.27615472  0.09682865  0.49995786
   0.22038467  0.19522423  0.50008443
   0.05435081  0.29738161  0.50008102
   0.10891915  0.19719705  0.50004670
   0.27596664  0.29365603  0.50032662
   0.06004657  0.49777067  0.50005827
   0.11385393  0.39487755  0.50018693
   0.05972098  0.69769407  0.49997033
   0.11841660  0.59733698  0.49997594
   0.28008653  0.70188222  0.49995415
   0.22369926  0.80004338  0.49998971
   0.05602918  0.89847544  0.49998617
   0.11221888  0.79862201  0.49999104
   0.27782691  0.89957078  0.49997800
   0.55581527  0.99948799  0.49989658
   0.38738775  0.09809840  0.49991413
   0.44395977  0.99903977  0.49990375
   0.61000206  0.09889835  0.49991310
   0.55354749  0.19701758  0.50004334
   0.44060780  0.19820971  0.50007484
   0.55703135  0.60582671  0.50008070
   0.39317562  0.70048473  0.50000053
   0.61303257  0.70409441  0.50003084
   0.55745684  0.80236009  0.50001239
   0.38961029  0.89981382  0.49998332
   0.44626207  0.80070769  0.50002344
   0.61217006  0.90127042  0.49994801
   0.88885892  0.99969550  0.49996671
   0.72150635  0.10052776  0.49995660
   0.77761902  0.00069989  0.49995254
   0.94236649  0.09983271  0.49994818
   0.88644398  0.20047651  0.49998257
   0.71563573  0.30190760  0.50017447
   0.77415750  0.20159210  0.50002646
   0.94228463  0.29974836  0.50002700
   0.88683039  0.40042237  0.50005657
   0.72037100  0.50440943  0.50015159
   0.77400603  0.40153005  0.50014978
   0.94735287  0.49882053  0.50003030
   0.89169907  0.59958487  0.49998530
   0.72460472  0.70201811  0.49999710
   0.77972983  0.60189399  0.50001389
   0.94742738  0.69879614  0.49998294
   0.89127666  0.79929385  0.49998979
   0.72370240  0.90087384  0.49994750
   0.77968787  0.80101118  0.49997047
   0.94477910  0.89947951  0.49998790
   0.23098238  0.60130720  0.49992321
   0.38853378  0.29963111  0.50038008
   0.60305341  0.29769059  0.50024442
   0.44464361  0.59905168  0.50004094
   0.22064306  0.38908883  0.50042987
   0.61380425  0.51074039  0.50024303
   0.32932311  0.48531372  0.50008602
   0.50193387  0.41402251  0.50059063
 
 position of ions in cartesian coordinates  (Angst):
   2.83310792 12.51219217 10.01119829
   0.67907103  1.23031038 10.01137102
   1.42041637 12.51780309 10.01130975
   3.49121765  1.21485564 10.01150388
   2.78913832  2.44853441 10.01403840
   0.69197573  3.72937815 10.01397022
   1.37878231  2.47326949 10.01328295
   3.49605162  3.68266737 10.01888819
   0.77139676  6.24184544 10.01351464
   1.44847277  4.95177718 10.01609105
   0.77461033  8.74847404 10.01175365
   1.51363465  7.49020229 10.01186604
   3.56315969  8.80098488 10.01142965
   2.85326299 10.03172425 10.01214171
   0.73525973 11.26586015 10.01207086
   1.44259381 10.01390322 10.01216838
   3.54181757 11.27959352 10.01190728
   7.06300897 12.53234999 10.01027677
   4.89875194  1.23077565 10.01062826
   5.64762889 12.52673020 10.01042032
   7.71563144  1.24080540 10.01060753
   7.00488038  2.47101929 10.01321552
   5.57584136  2.48596619 10.01384641
   7.06395640  7.59664629 10.01396374
   4.99408053  8.78346329 10.01235840
   7.77617252  8.82872132 10.01296527
   7.07654916 10.06077108 10.01259588
   4.95627748 11.28264075 10.01201367
   5.66948544 10.04005344 10.01281715
   7.77249146 11.30090348 10.01130673
  11.27718343 12.53495178 10.01168111
   9.12661023  1.26123493 10.01147875
   9.83297071  0.00959849 10.01139736
  11.92123863  1.25252046 10.01131007
  11.21731390  2.51438705 10.01199877
   9.05970910  3.78612489 10.01584153
   9.79653723  2.52837433 10.01287767
  11.92753375  3.75905221 10.01288851
  11.22953551  5.02129767 10.01348049
   9.12705411  6.32508195 10.01538326
   9.80195176  5.03518585 10.01534699
  11.99896589  6.25500844 10.01295441
  11.29844668  7.51838623 10.01205330
   9.18787502  8.80268868 10.01228962
   9.88172817  7.54733793 10.01262595
  12.00724353  8.76229182 10.01200616
  11.30042610 10.02232672 10.01214329
   9.18375134 11.29593110 10.01129642
   9.88850067 10.04385844 10.01175652
  11.98109373 11.27844912 10.01210544
   2.93813202  7.53998064 10.01081003
   4.92063839  3.75758268 10.01995875
   7.63499313  3.73325240 10.01724223
   5.64161017  7.51170123 10.01316750
   2.79951343  4.87919893 10.02095584
   7.77884269  6.40445933 10.01721437
   4.17823019  6.08566090 10.01407027
   6.35973908  5.19181637 10.02417495
 


--------------------------------------------------------------------------------------------------------


 k-point  1 :   0.2500 0.2500-0.0000  plane waves:   80663
 k-point  2 :  -0.2500 0.2500-0.0000  plane waves:   80660

 maximum and minimum number of plane-waves per node :      2557     2478

 maximum number of plane-waves:     80663
 maximum index in each direction: 
   IXMAX=   23   IYMAX=   22   IZMAX=   36
   IXMIN=  -23   IYMIN=  -23   IZMIN=  -36


 parallel 3D FFT for wavefunctions:
    minimum data exchange during FFTs selected (reduces bandwidth)
 parallel 3D FFT for charge:
    minimum data exchange during FFTs selected (reduces bandwidth)


 FFT grid for exact exchange (Hartree Fock) 
  NGX = 70; NGY = 70; NGZ =112

 
 Radii for the augmentation spheres in the non-local exchange
 for species   1 augmentation radius   0.874 (default was   0.699)
       energy cutoff for augmentation   2000.0
 for species   2 augmentation radius   0.886 (default was   0.709)
       energy cutoff for augmentation   2000.0
 for species   3 augmentation radius   1.307 (default was   1.045)
       energy cutoff for augmentation   2000.0
 for species   4 augmentation radius   1.263 (default was   1.010)
       energy cutoff for augmentation   2000.0

 real space projection operators:
  total allocation   :       2474.53 KBytes
  max/ min on nodes  :        107.89         39.94

 Maximum index for augmentation-charges in exchange          124
  SETUP_FOCK is finished

 total amount of memory used by VASP MPI-rank0   165376. kBytes
=======================================================================

   base      :      30000. kBytes
   nonl-proj :       5335. kBytes
   fftplans  :      14250. kBytes
   grid      :      36827. kBytes
   one-center:         62. kBytes
   HF        :         23. kBytes
   nonlr-proj:       1773. kBytes
   wavefun   :      77106. kBytes
 
     INWAV:  cpu time    3.4926: real time    3.4930
 Broyden mixing: mesh for mixing (old mesh)
   NGX = 47   NGY = 45   NGZ = 73
  (NGX  =192   NGY  =192   NGZ  =300)
  gives a total of 154395 points

 charge density for first step will be calculated from the start-wavefunctions


--------------------------------------------------------------------------------------------------------


 Maximum index for augmentation-charges          787 (set IRDMAX)


--------------------------------------------------------------------------------------------------------


 initial charge from wavefunction
 First call to EWALD:  gamma=   0.121
 Maximum number of real-space cells 3x 3x 2
 Maximum number of reciprocal cells 2x 2x 4

    FEWALD:  cpu time    0.0031: real time    0.0031


--------------------------------------- Iteration      1(   1)  ---------------------------------------


    POTLOK:  cpu time    1.3788: real time    1.3790
    SETDIJ:  cpu time    2.0871: real time    2.0871
    TRIAL :  cpu time  518.7981: real time  518.9927
    CORREC:  cpu time    0.0020: real time    0.0022
    CHARGE:  cpu time    1.6762: real time    1.6762
    --------------------------------------------
      LOOP:  cpu time  523.9585: real time  524.1557

 eigenvalue-minimisations  :     0
 total energy-change (2. order) :-0.6049684E+03  (-0.7232207E+00)
 number of electron     242.9999996 magnetization       3.0000504
 augmentation part       14.8236946 magnetization       2.3211118

 DIPCOR: dipole corrections for dipol
 direction  3 min pos     1,
 dipolmoment           0.000001     -0.000000     -0.001436 electrons x Angstroem
 Tr[quadrupol]     -6503.615450

 energy correction for charged system         0.000000 eV
 dipol+quadrupol energy correction            0.000000 eV
 added-field ion interaction          0.000000 eV  (added to PSCEN)


 Free energy of the ion-electron system (eV)
  ---------------------------------------------------
  alpha Z        PSCENC =        98.33028759
  Ewald energy   TEWEN  =     39144.66929093
  -Hartree energ DENC   =    -47577.85190437
  -exchange      EXHF   =       545.87232935
  -V(xc)+E(xc)   XCENC  =       615.17923422
  PAW double counting   =     26370.92878115   -26457.42446817
  entropy T*S    EENTRO =        -0.00111831
  eigenvalues    EBANDS =     -3116.06311540
  atomic energy  EATOM  =      9771.40124162
  ---------------------------------------------------
  free energy    TOTEN  =      -604.96844944 eV

  energy without entropy =     -604.96733113  energy(sigma->0) =     -604.96789029
  exchange ACFDT corr.  =        -0.07069738  see jH, gK, PRB 81, 115126


--------------------------------------------------------------------------------------------------------




--------------------------------------- Iteration      1(   2)  ---------------------------------------


    POTLOK:  cpu time    1.3942: real time    1.3943
    SETDIJ:  cpu time    2.0858: real time    2.0858
    TRIAL :  cpu time  517.8435: real time  518.0450
    CORREC:  cpu time    0.0020: real time    0.0022
    CHARGE:  cpu time    1.6735: real time    1.6736
    --------------------------------------------
      LOOP:  cpu time  523.0015: real time  523.2034

 eigenvalue-minimisations  :     0
 total energy-change (2. order) :-0.4780007E+00  (-0.6450333E+00)
 number of electron     242.9999997 magnetization       3.0000391
 augmentation part       14.8120043 magnetization       2.3532109

 DIPCOR: dipole corrections for dipol
 direction  3 min pos     1,
 dipolmoment           0.000001     -0.000000     -0.000875 electrons x Angstroem
 Tr[quadrupol]     -6503.500609

 energy correction for charged system         0.000000 eV
 dipol+quadrupol energy correction            0.000000 eV
 added-field ion interaction          0.000000 eV  (added to PSCEN)


 Free energy of the ion-electron system (eV)
  ---------------------------------------------------
  alpha Z        PSCENC =        98.33028755
  Ewald energy   TEWEN  =     39144.66929093
  -Hartree energ DENC   =    -47567.18664862
  -exchange      EXHF   =       546.00098152
  -V(xc)+E(xc)   XCENC  =       614.84702125
  PAW double counting   =     26493.53663552   -26579.67095884
  entropy T*S    EENTRO =        -0.00016858
  eigenvalues    EBANDS =     -3127.37318271
  atomic energy  EATOM  =      9771.40124162
  ---------------------------------------------------
  free energy    TOTEN  =      -605.44645010 eV

  energy without entropy =     -605.44628152  energy(sigma->0) =     -605.44636581
  exchange ACFDT corr.  =        -0.00552694  see jH, gK, PRB 81, 115126


--------------------------------------------------------------------------------------------------------




--------------------------------------- Iteration      1(   3)  ---------------------------------------


    POTLOK:  cpu time    1.4000: real time    1.4000
    SETDIJ:  cpu time    2.0828: real time    2.0854
    TRIAL :  cpu time  517.6206: real time  517.8144
    CORREC:  cpu time    0.0019: real time    0.0021
    CHARGE:  cpu time    1.6731: real time    1.6734
    --------------------------------------------
      LOOP:  cpu time  522.7808: real time  522.9777

 eigenvalue-minimisations  :     0
 total energy-change (2. order) :-0.4251558E+00  (-0.3901471E+00)
 number of electron     242.9999997 magnetization       3.0000088
 augmentation part       14.7885915 magnetization       2.3802639

 DIPCOR: dipole corrections for dipol
 direction  3 min pos     1,
 dipolmoment           0.000001     -0.000000     -0.001413 electrons x Angstroem
 Tr[quadrupol]     -6503.329982

 energy correction for charged system         0.000000 eV
 dipol+quadrupol energy correction            0.000000 eV
 added-field ion interaction          0.000000 eV  (added to PSCEN)


 Free energy of the ion-electron system (eV)
  ---------------------------------------------------
  alpha Z        PSCENC =        98.33028758
  Ewald energy   TEWEN  =     39144.66929093
  -Hartree energ DENC   =    -47554.23075032
  -exchange      EXHF   =       546.04747822
  -V(xc)+E(xc)   XCENC  =       614.51978920
  PAW double counting   =     26647.03523359   -26733.60879528
  entropy T*S    EENTRO =        -0.00003545
  eigenvalues    EBANDS =     -3140.03521282
  atomic energy  EATOM  =      9771.40124162
  ---------------------------------------------------
  free energy    TOTEN  =      -605.87160586 eV

  energy without entropy =     -605.87157041  energy(sigma->0) =     -605.87158813
  exchange ACFDT corr.  =        -0.00044652  see jH, gK, PRB 81, 115126


--------------------------------------------------------------------------------------------------------




--------------------------------------- Iteration      1(   4)  ---------------------------------------


    POTLOK:  cpu time    1.4015: real time    1.4021
    SETDIJ:  cpu time    2.0832: real time    2.0831
    TRIAL :  cpu time  515.1106: real time  515.3045
    CORREC:  cpu time    0.0016: real time    0.0018
    CHARGE:  cpu time    1.6659: real time    1.6662
    --------------------------------------------
      LOOP:  cpu time  520.2652: real time  520.4600

 eigenvalue-minimisations  :     0
 total energy-change (2. order) :-0.2865450E+00  (-0.2334496E+00)
 number of electron     242.9999997 magnetization       3.0000008
 augmentation part       14.7899717 magnetization       2.3944744

 DIPCOR: dipole corrections for dipol
 direction  3 min pos     1,
 dipolmoment           0.000001     -0.000000     -0.001766 electrons x Angstroem
 Tr[quadrupol]     -6503.264278

 energy correction for charged system         0.000000 eV
 dipol+quadrupol energy correction            0.000000 eV
 added-field ion interaction          0.000000 eV  (added to PSCEN)


 Free energy of the ion-electron system (eV)
  ---------------------------------------------------
  alpha Z        PSCENC =        98.33028762
  Ewald energy   TEWEN  =     39144.66929093
  -Hartree energ DENC   =    -47546.36500164
  -exchange      EXHF   =       546.28192530
  -V(xc)+E(xc)   XCENC  =       614.32284633
  PAW double counting   =     26781.07287689   -26866.92328714
  entropy T*S    EENTRO =        -0.00000464
  eigenvalues    EBANDS =     -3148.94829529
  atomic energy  EATOM  =      9771.40124162
  ---------------------------------------------------
  free energy    TOTEN  =      -606.15815084 eV

  energy without entropy =     -606.15814621  energy(sigma->0) =     -606.15814853
  exchange ACFDT corr.  =        -0.00008673  see jH, gK, PRB 81, 115126


--------------------------------------------------------------------------------------------------------




--------------------------------------- Iteration      1(   5)  ---------------------------------------


    POTLOK:  cpu time    1.4054: real time    1.4060
    SETDIJ:  cpu time    2.0806: real time    2.0806
    TRIAL :  cpu time  514.7424: real time  514.9258
    CORREC:  cpu time    0.0016: real time    0.0018
    CHARGE:  cpu time    1.6655: real time    1.6658
    --------------------------------------------
      LOOP:  cpu time  519.8979: real time  520.0824

 eigenvalue-minimisations  :     0
 total energy-change (2. order) :-0.1812920E+00  (-0.1558528E+00)
 number of electron     242.9999997 magnetization       2.9999999
 augmentation part       14.8047607 magnetization       2.3979162

 DIPCOR: dipole corrections for dipol
 direction  3 min pos     1,
 dipolmoment           0.000001     -0.000000     -0.001932 electrons x Angstroem
 Tr[quadrupol]     -6503.294954

 energy correction for charged system         0.000000 eV
 dipol+quadrupol energy correction            0.000000 eV
 added-field ion interaction          0.000000 eV  (added to PSCEN)


 Free energy of the ion-electron system (eV)
  ---------------------------------------------------
  alpha Z        PSCENC =        98.33028763
  Ewald energy   TEWEN  =     39144.66929093
  -Hartree energ DENC   =    -47547.12504195
  -exchange      EXHF   =       546.64032526
  -V(xc)+E(xc)   XCENC  =       614.34639878
  PAW double counting   =     26883.00384078   -26968.67699592
  entropy T*S    EENTRO =        -0.00000047
  eigenvalues    EBANDS =     -3148.92878530
  atomic energy  EATOM  =      9771.40124162
  ---------------------------------------------------
  free energy    TOTEN  =      -606.33944281 eV

  energy without entropy =     -606.33944234  energy(sigma->0) =     -606.33944258
  exchange ACFDT corr.  =        -0.00001079  see jH, gK, PRB 81, 115126


--------------------------------------------------------------------------------------------------------




--------------------------------------- Iteration      1(   6)  ---------------------------------------


    POTLOK:  cpu time    1.4005: real time    1.4011
    SETDIJ:  cpu time    2.0845: real time    2.0845
    TRIAL :  cpu time  514.2303: real time  514.4192
    CORREC:  cpu time    0.0013: real time    0.0016
    CHARGE:  cpu time    1.6655: real time    1.6657
    --------------------------------------------
      LOOP:  cpu time  519.3842: real time  519.5742

 eigenvalue-minimisations  :     0
 total energy-change (2. order) :-0.1288724E+00  (-0.1076458E+00)
 number of electron     242.9999997 magnetization       2.9999998
 augmentation part       14.8144594 magnetization       2.3952864

 DIPCOR: dipole corrections for dipol
 direction  3 min pos     1,
 dipolmoment           0.000001     -0.000000     -0.001989 electrons x Angstroem
 Tr[quadrupol]     -6503.362693

 energy correction for charged system         0.000000 eV
 dipol+quadrupol energy correction            0.000000 eV
 added-field ion interaction          0.000000 eV  (added to PSCEN)


 Free energy of the ion-electron system (eV)
  ---------------------------------------------------
  alpha Z        PSCENC =        98.33028764
  Ewald energy   TEWEN  =     39144.66929093
  -Hartree energ DENC   =    -47552.04396456
  -exchange      EXHF   =       547.01012464
  -V(xc)+E(xc)   XCENC  =       614.47883728
  PAW double counting   =     26952.38960181   -27038.39482182
  entropy T*S    EENTRO =        -0.00000004
  eigenvalues    EBANDS =     -3144.30891224
  atomic energy  EATOM  =      9771.40124162
  ---------------------------------------------------
  free energy    TOTEN  =      -606.46831517 eV

  energy without entropy =     -606.46831514  energy(sigma->0) =     -606.46831516
  exchange ACFDT corr.  =        -0.00000103  see jH, gK, PRB 81, 115126


--------------------------------------------------------------------------------------------------------




--------------------------------------- Iteration      1(   7)  ---------------------------------------


    POTLOK:  cpu time    1.3992: real time    1.3998
    SETDIJ:  cpu time    2.0821: real time    2.0821
    TRIAL :  cpu time  514.3250: real time  514.5172
    CORREC:  cpu time    0.0012: real time    0.0015
    CHARGE:  cpu time    1.6702: real time    1.6706
    --------------------------------------------
      LOOP:  cpu time  519.4799: real time  519.6734

 eigenvalue-minimisations  :     0
 total energy-change (2. order) :-0.9001362E-01  (-0.7508533E-01)
 number of electron     242.9999997 magnetization       2.9999998
 augmentation part       14.8167640 magnetization       2.3901509

 DIPCOR: dipole corrections for dipol
 direction  3 min pos     1,
 dipolmoment           0.000001     -0.000000     -0.002022 electrons x Angstroem
 Tr[quadrupol]     -6503.420994

 energy correction for charged system         0.000000 eV
 dipol+quadrupol energy correction            0.000000 eV
 added-field ion interaction          0.000000 eV  (added to PSCEN)


 Free energy of the ion-electron system (eV)
  ---------------------------------------------------
  alpha Z        PSCENC =        98.33028764
  Ewald energy   TEWEN  =     39144.66929093
  -Hartree energ DENC   =    -47556.40882593
  -exchange      EXHF   =       547.31014047
  -V(xc)+E(xc)   XCENC  =       614.60141432
  PAW double counting   =     26994.88022110   -27081.12704484
  entropy T*S    EENTRO =        -0.00000000
  eigenvalues    EBANDS =     -3140.21505407
  atomic energy  EATOM  =      9771.40124162
  ---------------------------------------------------
  free energy    TOTEN  =      -606.55832880 eV

  energy without entropy =     -606.55832880  energy(sigma->0) =     -606.55832880
  exchange ACFDT corr.  =        -0.00000007  see jH, gK, PRB 81, 115126


--------------------------------------------------------------------------------------------------------




--------------------------------------- Iteration      1(   8)  ---------------------------------------


    POTLOK:  cpu time    1.3939: real time    1.3950
    SETDIJ:  cpu time    2.0830: real time    2.0830
    TRIAL :  cpu time  513.8809: real time  514.0768
    CORREC:  cpu time    0.0011: real time    0.0014
    CHARGE:  cpu time    1.6618: real time    1.6619
    --------------------------------------------
      LOOP:  cpu time  519.0232: real time  519.2205

 eigenvalue-minimisations  :     0
 total energy-change (2. order) :-0.6414702E-01  (-0.5307991E-01)
 number of electron     242.9999997 magnetization       2.9999998
 augmentation part       14.8175873 magnetization       2.3848805

 DIPCOR: dipole corrections for dipol
 direction  3 min pos     1,
 dipolmoment           0.000001     -0.000000     -0.002054 electrons x Angstroem
 Tr[quadrupol]     -6503.454954

 energy correction for charged system         0.000000 eV
 dipol+quadrupol energy correction            0.000000 eV
 added-field ion interaction          0.000000 eV  (added to PSCEN)


 Free energy of the ion-electron system (eV)
  ---------------------------------------------------
  alpha Z        PSCENC =        98.33028765
  Ewald energy   TEWEN  =     39144.66929093
  -Hartree energ DENC   =    -47558.78057786
  -exchange      EXHF   =       547.52169824
  -V(xc)+E(xc)   XCENC  =       614.67494512
  PAW double counting   =     27018.47578549   -27104.73601179
  entropy T*S    EENTRO =        -0.00000000
  eigenvalues    EBANDS =     -3138.17913520
  atomic energy  EATOM  =      9771.40124162
  ---------------------------------------------------
  free energy    TOTEN  =      -606.62247582 eV

  energy without entropy =     -606.62247582  energy(sigma->0) =     -606.62247582
  exchange ACFDT corr.  =        -0.00000000  see jH, gK, PRB 81, 115126


--------------------------------------------------------------------------------------------------------




--------------------------------------- Iteration      1(   9)  ---------------------------------------


    POTLOK:  cpu time    1.3902: real time    1.3905
    SETDIJ:  cpu time    2.0824: real time    2.0852
    TRIAL :  cpu time  512.8846: real time  513.0940
    CORREC:  cpu time    0.0011: real time    0.0014
    CHARGE:  cpu time    1.6572: real time    1.6573
    --------------------------------------------
      LOOP:  cpu time  518.0181: real time  518.2308

 eigenvalue-minimisations  :     0
 total energy-change (2. order) :-0.4582559E-01  (-0.3720587E-01)
 number of electron     242.9999997 magnetization       2.9999998
 augmentation part       14.8202413 magnetization       2.3804279

 DIPCOR: dipole corrections for dipol
 direction  3 min pos     1,
 dipolmoment           0.000001     -0.000000     -0.002094 electrons x Angstroem
 Tr[quadrupol]     -6503.469520

 energy correction for charged system         0.000000 eV
 dipol+quadrupol energy correction            0.000000 eV
 added-field ion interaction          0.000000 eV  (added to PSCEN)


 Free energy of the ion-electron system (eV)
  ---------------------------------------------------
  alpha Z        PSCENC =        98.33028765
  Ewald energy   TEWEN  =     39144.66929093
  -Hartree energ DENC   =    -47559.77360428
  -exchange      EXHF   =       547.66498990
  -V(xc)+E(xc)   XCENC  =       614.71170881
  PAW double counting   =     27030.85654242   -27117.08411041
  entropy T*S    EENTRO =        -0.00000000
  eigenvalues    EBANDS =     -3137.44464805
  atomic energy  EATOM  =      9771.40124162
  ---------------------------------------------------
  free energy    TOTEN  =      -606.66830141 eV

  energy without entropy =     -606.66830141  energy(sigma->0) =     -606.66830141
  exchange ACFDT corr.  =        -0.00000000  see jH, gK, PRB 81, 115126


--------------------------------------------------------------------------------------------------------




--------------------------------------- Iteration      1(  10)  ---------------------------------------


    POTLOK:  cpu time    1.3837: real time    1.3838
    SETDIJ:  cpu time    2.0825: real time    2.0826
    TRIAL :  cpu time  512.5412: real time  512.7537
    CORREC:  cpu time    0.0010: real time    0.0012
    CHARGE:  cpu time    1.6594: real time    1.6636
    --------------------------------------------
      LOOP:  cpu time  517.6700: real time  517.8872

 eigenvalue-minimisations  :     0
 total energy-change (2. order) :-0.3275648E-01  (-0.2676447E-01)
 number of electron     242.9999997 magnetization       2.9999998
 augmentation part       14.8231979 magnetization       2.3766702

 DIPCOR: dipole corrections for dipol
 direction  3 min pos     1,
 dipolmoment           0.000001     -0.000000     -0.002127 electrons x Angstroem
 Tr[quadrupol]     -6503.474460

 energy correction for charged system         0.000000 eV
 dipol+quadrupol energy correction            0.000000 eV
 added-field ion interaction          0.000000 eV  (added to PSCEN)


 Free energy of the ion-electron system (eV)
  ---------------------------------------------------
  alpha Z        PSCENC =        98.33028766
  Ewald energy   TEWEN  =     39144.66929093
  -Hartree energ DENC   =    -47560.22871813
  -exchange      EXHF   =       547.76630595
  -V(xc)+E(xc)   XCENC  =       614.73147330
  PAW double counting   =     27037.18022935   -27123.46012373
  entropy T*S    EENTRO =        -0.00000000
  eigenvalues    EBANDS =     -3137.09104484
  atomic energy  EATOM  =      9771.40124162
  ---------------------------------------------------
  free energy    TOTEN  =      -606.70105789 eV

  energy without entropy =     -606.70105789  energy(sigma->0) =     -606.70105789
  exchange ACFDT corr.  =        -0.00000000  see jH, gK, PRB 81, 115126


--------------------------------------------------------------------------------------------------------




--------------------------------------- Iteration      1(  11)  ---------------------------------------


    POTLOK:  cpu time    1.3829: real time    1.3829
    SETDIJ:  cpu time    2.0855: real time    2.0856
    TRIAL :  cpu time  511.6750: real time  511.9270
    CORREC:  cpu time    0.0010: real time    0.0013
    CHARGE:  cpu time    1.6576: real time    1.6577
    --------------------------------------------
      LOOP:  cpu time  516.8041: real time  517.0565

 eigenvalue-minimisations  :     0
 total energy-change (2. order) :-0.2384517E-01  (-0.1941806E-01)
 number of electron     242.9999997 magnetization       2.9999998
 augmentation part       14.8248065 magnetization       2.3732922

 DIPCOR: dipole corrections for dipol
 direction  3 min pos     1,
 dipolmoment           0.000001     -0.000000     -0.002151 electrons x Angstroem
 Tr[quadrupol]     -6503.476356

 energy correction for charged system         0.000000 eV
 dipol+quadrupol energy correction            0.000000 eV
 added-field ion interaction          0.000000 eV  (added to PSCEN)


 Free energy of the ion-electron system (eV)
  ---------------------------------------------------
  alpha Z        PSCENC =        98.33028766
  Ewald energy   TEWEN  =     39144.66929093
  -Hartree energ DENC   =    -47560.48450035
  -exchange      EXHF   =       547.84224023
  -V(xc)+E(xc)   XCENC  =       614.74319188
  PAW double counting   =     27040.28691805   -27126.65993614
  entropy T*S    EENTRO =        -0.00000000
  eigenvalues    EBANDS =     -3136.85363695
  atomic energy  EATOM  =      9771.40124162
  ---------------------------------------------------
  free energy    TOTEN  =      -606.72490307 eV

  energy without entropy =     -606.72490307  energy(sigma->0) =     -606.72490307
  exchange ACFDT corr.  =        -0.00000000  see jH, gK, PRB 81, 115126


--------------------------------------------------------------------------------------------------------




--------------------------------------- Iteration      1(  12)  ---------------------------------------


    POTLOK:  cpu time    1.3827: real time    1.3827
    SETDIJ:  cpu time    2.0801: real time    2.0843
    TRIAL :  cpu time  511.6135: real time  511.8151
    CORREC:  cpu time    0.0010: real time    0.0013
    CHARGE:  cpu time    1.6571: real time    1.6572
    --------------------------------------------
      LOOP:  cpu time  516.7371: real time  516.9433

 eigenvalue-minimisations  :     0
 total energy-change (2. order) :-0.1746499E-01  (-0.1429539E-01)
 number of electron     242.9999997 magnetization       2.9999998
 augmentation part       14.8251732 magnetization       2.3701523

 DIPCOR: dipole corrections for dipol
 direction  3 min pos     1,
 dipolmoment           0.000001     -0.000000     -0.002166 electrons x Angstroem
 Tr[quadrupol]     -6503.478110

 energy correction for charged system         0.000000 eV
 dipol+quadrupol energy correction            0.000000 eV
 added-field ion interaction          0.000000 eV  (added to PSCEN)


 Free energy of the ion-electron system (eV)
  ---------------------------------------------------
  alpha Z        PSCENC =        98.33028766
  Ewald energy   TEWEN  =     39144.66929093
  -Hartree energ DENC   =    -47560.63043941
  -exchange      EXHF   =       547.90199520
  -V(xc)+E(xc)   XCENC  =       614.75005113
  PAW double counting   =     27041.86994035   -27128.30752144
  entropy T*S    EENTRO =        -0.00000000
  eigenvalues    EBANDS =     -3136.72721410
  atomic energy  EATOM  =      9771.40124162
  ---------------------------------------------------
  free energy    TOTEN  =      -606.74236806 eV

  energy without entropy =     -606.74236806  energy(sigma->0) =     -606.74236806
  exchange ACFDT corr.  =        -0.00000000  see jH, gK, PRB 81, 115126


--------------------------------------------------------------------------------------------------------




--------------------------------------- Iteration      1(  13)  ---------------------------------------


    POTLOK:  cpu time    1.3773: real time    1.3774
    SETDIJ:  cpu time    2.0821: real time    2.0822
    TRIAL :  cpu time  511.6417: real time  511.8466
    CORREC:  cpu time    0.0010: real time    0.0012
    CHARGE:  cpu time    1.6636: real time    1.6637
    --------------------------------------------
      LOOP:  cpu time  516.7686: real time  516.9739

 eigenvalue-minimisations  :     0
 total energy-change (2. order) :-0.1297326E-01  (-0.1065219E-01)
 number of electron     242.9999997 magnetization       2.9999998
 augmentation part       14.8253648 magnetization       2.3672466

 DIPCOR: dipole corrections for dipol
 direction  3 min pos     1,
 dipolmoment           0.000001     -0.000000     -0.002169 electrons x Angstroem
 Tr[quadrupol]     -6503.480415

 energy correction for charged system         0.000000 eV
 dipol+quadrupol energy correction            0.000000 eV
 added-field ion interaction          0.000000 eV  (added to PSCEN)


 Free energy of the ion-electron system (eV)
  ---------------------------------------------------
  alpha Z        PSCENC =        98.33028766
  Ewald energy   TEWEN  =     39144.66929093
  -Hartree energ DENC   =    -47560.72585276
  -exchange      EXHF   =       547.95095252
  -V(xc)+E(xc)   XCENC  =       614.75421150
  PAW double counting   =     27043.10666944   -27129.56646961
  entropy T*S    EENTRO =        -0.00000000
  eigenvalues    EBANDS =     -3136.67567260
  atomic energy  EATOM  =      9771.40124162
  ---------------------------------------------------
  free energy    TOTEN  =      -606.75534132 eV

  energy without entropy =     -606.75534132  energy(sigma->0) =     -606.75534132
  exchange ACFDT corr.  =        -0.00000000  see jH, gK, PRB 81, 115126


--------------------------------------------------------------------------------------------------------




--------------------------------------- Iteration      1(  14)  ---------------------------------------


    POTLOK:  cpu time    1.3741: real time    1.3742
    SETDIJ:  cpu time    2.0786: real time    2.0787
    TRIAL :  cpu time  511.2996: real time  511.5219
    CORREC:  cpu time    0.0010: real time    0.0012
    CHARGE:  cpu time    1.6545: real time    1.6612
    --------------------------------------------
      LOOP:  cpu time  516.4108: real time  516.6403

 eigenvalue-minimisations  :     0
 total energy-change (2. order) :-0.9731624E-02  (-0.8000375E-02)
 number of electron     242.9999997 magnetization       2.9999998
 augmentation part       14.8259331 magnetization       2.3645644

 DIPCOR: dipole corrections for dipol
 direction  3 min pos     1,
 dipolmoment           0.000001     -0.000000     -0.002168 electrons x Angstroem
 Tr[quadrupol]     -6503.483201

 energy correction for charged system         0.000000 eV
 dipol+quadrupol energy correction            0.000000 eV
 added-field ion interaction          0.000000 eV  (added to PSCEN)


 Free energy of the ion-electron system (eV)
  ---------------------------------------------------
  alpha Z        PSCENC =        98.33028766
  Ewald energy   TEWEN  =     39144.66929093
  -Hartree energ DENC   =    -47560.84504365
  -exchange      EXHF   =       547.99265100
  -V(xc)+E(xc)   XCENC  =       614.75786371
  PAW double counting   =     27044.54809142   -27131.01754201
  entropy T*S    EENTRO =        -0.00000000
  eigenvalues    EBANDS =     -3136.60191361
  atomic energy  EATOM  =      9771.40124162
  ---------------------------------------------------
  free energy    TOTEN  =      -606.76507294 eV

  energy without entropy =     -606.76507294  energy(sigma->0) =     -606.76507294
  exchange ACFDT corr.  =        -0.00000000  see jH, gK, PRB 81, 115126


--------------------------------------------------------------------------------------------------------




--------------------------------------- Iteration      1(  15)  ---------------------------------------


    POTLOK:  cpu time    1.3716: real time    1.3716
    SETDIJ:  cpu time    2.0779: real time    2.0779
    TRIAL :  cpu time  511.4038: real time  511.6147
    CORREC:  cpu time    0.0010: real time    0.0012
    CHARGE:  cpu time    1.6625: real time    1.6664
    --------------------------------------------
      LOOP:  cpu time  516.5192: real time  516.7343

 eigenvalue-minimisations  :     0
 total energy-change (2. order) :-0.7363413E-02  (-0.6092185E-02)
 number of electron     242.9999997 magnetization       2.9999998
 augmentation part       14.8266133 magnetization       2.3619981

 DIPCOR: dipole corrections for dipol
 direction  3 min pos     1,
 dipolmoment           0.000001     -0.000000     -0.002163 electrons x Angstroem
 Tr[quadrupol]     -6503.486066

 energy correction for charged system         0.000000 eV
 dipol+quadrupol energy correction            0.000000 eV
 added-field ion interaction          0.000000 eV  (added to PSCEN)


 Free energy of the ion-electron system (eV)
  ---------------------------------------------------
  alpha Z        PSCENC =        98.33028766
  Ewald energy   TEWEN  =     39144.66929093
  -Hartree energ DENC   =    -47561.00678640
  -exchange      EXHF   =       548.02882035
  -V(xc)+E(xc)   XCENC  =       614.76183564
  PAW double counting   =     27046.33589503   -27132.82531699
  entropy T*S    EENTRO =        -0.00000000
  eigenvalues    EBANDS =     -3136.46770419
  atomic energy  EATOM  =      9771.40124162
  ---------------------------------------------------
  free energy    TOTEN  =      -606.77243636 eV

  energy without entropy =     -606.77243636  energy(sigma->0) =     -606.77243636
  exchange ACFDT corr.  =        -0.00000000  see jH, gK, PRB 81, 115126


--------------------------------------------------------------------------------------------------------




--------------------------------------- Iteration      1(  16)  ---------------------------------------


    POTLOK:  cpu time    1.3690: real time    1.3691
    SETDIJ:  cpu time    2.0702: real time    2.0711
    TRIAL :  cpu time  511.3989: real time  511.5489
    CORREC:  cpu time    0.0010: real time    0.0012
    CHARGE:  cpu time    1.6526: real time    1.6526
    --------------------------------------------
      LOOP:  cpu time  516.4944: real time  516.6456

 eigenvalue-minimisations  :     0
 total energy-change (2. order) :-0.5640858E-02  (-0.4697662E-02)
 number of electron     242.9999997 magnetization       2.9999998
 augmentation part       14.8270735 magnetization       2.3594878

 DIPCOR: dipole corrections for dipol
 direction  3 min pos     1,
 dipolmoment           0.000001     -0.000000     -0.002158 electrons x Angstroem
 Tr[quadrupol]     -6503.488589

 energy correction for charged system         0.000000 eV
 dipol+quadrupol energy correction            0.000000 eV
 added-field ion interaction          0.000000 eV  (added to PSCEN)


 Free energy of the ion-electron system (eV)
  ---------------------------------------------------
  alpha Z        PSCENC =        98.33028766
  Ewald energy   TEWEN  =     39144.66929093
  -Hartree energ DENC   =    -47561.16973113
  -exchange      EXHF   =       548.05994728
  -V(xc)+E(xc)   XCENC  =       614.76548699
  PAW double counting   =     27048.32453560   -27134.83904677
  entropy T*S    EENTRO =        -0.00000000
  eigenvalues    EBANDS =     -3136.32008940
  atomic energy  EATOM  =      9771.40124162
  ---------------------------------------------------
  free energy    TOTEN  =      -606.77807721 eV

  energy without entropy =     -606.77807721  energy(sigma->0) =     -606.77807721
  exchange ACFDT corr.  =        -0.00000000  see jH, gK, PRB 81, 115126


--------------------------------------------------------------------------------------------------------




--------------------------------------- Iteration      1(  17)  ---------------------------------------


    POTLOK:  cpu time    1.3652: real time    1.3652
    SETDIJ:  cpu time    2.0775: real time    2.0777
    TRIAL :  cpu time  511.2092: real time  511.3626
    CORREC:  cpu time    0.0010: real time    0.0012
    CHARGE:  cpu time    1.6540: real time    1.6540
    --------------------------------------------
      LOOP:  cpu time  516.3094: real time  516.4633

 eigenvalue-minimisations  :     0
 total energy-change (2. order) :-0.4373523E-02  (-0.3674037E-02)
 number of electron     242.9999997 magnetization       2.9999998
 augmentation part       14.8273254 magnetization       2.3570748

 DIPCOR: dipole corrections for dipol
 direction  3 min pos     1,
 dipolmoment           0.000001     -0.000000     -0.002153 electrons x Angstroem
 Tr[quadrupol]     -6503.490516

 energy correction for charged system         0.000000 eV
 dipol+quadrupol energy correction            0.000000 eV
 added-field ion interaction          0.000000 eV  (added to PSCEN)


 Free energy of the ion-electron system (eV)
  ---------------------------------------------------
  alpha Z        PSCENC =        98.33028766
  Ewald energy   TEWEN  =     39144.66929093
  -Hartree energ DENC   =    -47561.29507794
  -exchange      EXHF   =       548.08638608
  -V(xc)+E(xc)   XCENC  =       614.76817036
  PAW double counting   =     27050.29608956   -27136.82908679
  entropy T*S    EENTRO =        -0.00000000
  eigenvalues    EBANDS =     -3136.20975222
  atomic energy  EATOM  =      9771.40124162
  ---------------------------------------------------
  free energy    TOTEN  =      -606.78245074 eV

  energy without entropy =     -606.78245074  energy(sigma->0) =     -606.78245074
  exchange ACFDT corr.  =        -0.00000000  see jH, gK, PRB 81, 115126


--------------------------------------------------------------------------------------------------------




--------------------------------------- Iteration      1(  18)  ---------------------------------------


    POTLOK:  cpu time    1.3676: real time    1.3676
    SETDIJ:  cpu time    2.0821: real time    2.0822
    TRIAL :  cpu time  511.5541: real time  511.6452
    CORREC:  cpu time    0.0009: real time    0.0009
    CHARGE:  cpu time    1.6520: real time    1.6524
    --------------------------------------------
      LOOP:  cpu time  516.6588: real time  516.7504

 eigenvalue-minimisations  :     0
 total energy-change (2. order) :-0.3438348E-02  (-0.2913244E-02)
 number of electron     242.9999997 magnetization       2.9999998
 augmentation part       14.8275493 magnetization       2.3548372

 DIPCOR: dipole corrections for dipol
 direction  3 min pos     1,
 dipolmoment           0.000001     -0.000000     -0.002145 electrons x Angstroem
 Tr[quadrupol]     -6503.491912

 energy correction for charged system         0.000000 eV
 dipol+quadrupol energy correction            0.000000 eV
 added-field ion interaction          0.000000 eV  (added to PSCEN)


 Free energy of the ion-electron system (eV)
  ---------------------------------------------------
  alpha Z        PSCENC =        98.33028766
  Ewald energy   TEWEN  =     39144.66929093
  -Hartree energ DENC   =    -47561.38322535
  -exchange      EXHF   =       548.10887703
  -V(xc)+E(xc)   XCENC  =       614.77001784
[...]
  augment   161.36058   165.79870   168.93893    -0.64384    -0.05670    -0.07833
  Kinetic  3561.09308  3554.37209  4013.07960    23.40217    -0.03429    -0.03533
  Fock     -332.87748  -334.75412  -312.46659     1.23798    -0.00627     0.00122
  -------------------------------------------------------------------------------------
  Total     -12.35708   -48.93274    -0.31012    13.98616    -0.01763    -0.00171
  in kB      -6.23194   -24.67784    -0.15640     7.05352    -0.00889    -0.00086
  external pressure =      -10.36 kB  Pullay stress =        0.00 kB


 VOLUME and BASIS-vectors are now :
 -----------------------------------------------------------------------------
  energy-cutoff  :      500.00
  volume of cell :     3176.90
      direct lattice vectors                 reciprocal lattice vectors
    12.653500000  0.000000000  0.000000000     0.079029518 -0.000231176  0.000052571
     0.036675752 12.537946359  0.000000000     0.000000000  0.079757878 -0.000006559
    -0.013315833  0.001646644 20.024695505     0.000000000  0.000000000  0.049938337

  length of vectors
    12.653500000 12.538000000 20.024700000     0.079029873  0.079757879  0.049938337


 FORCES acting on ions:
    Electron-Ion                     Ewald-Force                    Non-Local-Force
 -----------------------------------------------------------------------------------------------
   0.133E+00 0.285E+01 0.452E+00   0.201E-01 -.304E+01 -.453E+00   -.127E+00 0.958E-01 0.254E-02
   0.544E+00 0.410E+01 0.516E+00   -.840E+00 -.444E+01 -.519E+00   0.120E+00 0.267E+00 0.587E-02
   0.828E+01 -.351E-01 0.379E+00   -.821E+01 -.146E+00 -.378E+00   -.546E-01 0.113E+00 0.138E-02
   0.378E+01 0.593E+01 0.593E+00   -.331E+01 -.610E+01 -.591E+00   -.373E+00 0.224E+00 -.138E-02
   0.694E+00 0.139E+02 0.104E+00   -.377E+00 -.143E+02 -.109E+00   -.368E+00 0.290E+00 0.750E-02
   0.143E+02 0.109E+01 0.242E-01   -.150E+02 -.139E+01 -.251E-01   0.556E+00 0.199E+00 0.176E-02
   0.147E+02 0.596E+01 0.755E-01   -.147E+02 -.608E+01 -.733E-01   0.850E-01 0.204E+00 -.468E-02
   -.146E+02 0.430E+02 -.129E+01   0.184E+02 -.468E+02 0.129E+01   -.377E+01 0.364E+01 0.231E-02
   0.394E+01 -.705E+01 0.846E-01   -.380E+01 0.832E+01 -.874E-01   -.401E+00 -.109E+01 0.277E-02
   0.533E+02 -.149E+02 -.373E+00   -.571E+02 0.153E+02 0.353E+00   0.422E+01 -.535E+00 0.242E-01
   -.123E+01 0.670E+01 0.299E+00   0.170E+01 -.718E+01 -.300E+00   -.513E+00 0.451E+00 0.435E-02
   0.125E+02 0.555E+00 0.432E+00   -.108E+02 -.201E+00 -.430E+00   -.160E+01 -.952E-01 -.116E-02
   0.664E+01 -.128E+02 0.493E+00   -.711E+01 0.114E+02 -.498E+00   0.266E-01 0.119E+01 0.621E-02
   0.676E+00 -.258E+01 0.192E-01   -.546E+00 0.205E+01 -.179E-01   -.218E+00 0.551E+00 -.416E-02
   -.318E+01 0.348E+01 0.182E-01   0.325E+01 -.366E+01 -.182E-01   -.118E+00 0.247E+00 -.283E-02
   0.106E+02 -.460E+00 0.190E-01   -.104E+02 0.131E+00 -.194E-01   -.931E-01 0.255E+00 -.269E-02
   0.403E+01 0.215E+00 0.945E-01   -.413E+01 -.354E+00 -.941E-01   0.460E-02 0.211E+00 -.151E-02
   -.397E+01 -.150E+01 0.722E+00   0.412E+01 0.169E+01 -.723E+00   -.162E-01 -.267E+00 0.202E-02
   -.797E+01 0.424E+01 0.102E+01   0.832E+01 -.372E+01 -.102E+01   -.452E+00 -.579E+00 0.112E-01
   0.150E+01 -.141E+01 0.709E+00   -.166E+01 0.150E+01 -.710E+00   0.444E-01 -.123E+00 0.291E-02
   -.810E+00 0.367E-01 0.882E+00   0.619E+00 0.601E+00 -.886E+00   0.234E+00 -.659E+00 0.794E-02
   -.710E+01 0.571E+01 0.432E+00   0.773E+01 -.398E+01 -.422E+00   -.102E+00 -.145E+01 -.472E-02
   -.131E+01 0.492E+01 0.326E+00   0.101E+01 -.328E+01 -.309E+00   -.409E-01 -.126E+01 -.837E-02
   0.121E+02 -.338E+02 0.314E+00   -.156E+02 0.376E+02 -.341E+00   0.370E+01 -.366E+01 0.286E-01
   -.240E+01 -.943E+01 0.258E+00   0.281E+01 0.792E+01 -.256E+00   -.681E-01 0.116E+01 0.158E-02
   -.226E+01 -.110E+02 0.108E+00   0.185E+01 0.113E+02 -.106E+00   0.373E+00 -.241E+00 -.118E-02
   -.465E+01 -.655E+01 -.309E-01   0.423E+01 0.670E+01 0.307E-01   0.334E+00 -.211E+00 -.286E-02
   -.257E+01 0.574E+00 0.281E-01   0.273E+01 -.647E+00 -.289E-01   -.473E-01 0.115E+00 -.443E-02
   0.679E+01 -.539E+01 -.153E+00   -.704E+01 0.489E+01 0.155E+00   0.371E+00 0.537E+00 -.566E-02
   -.276E+00 -.314E+01 0.307E+00   0.143E+00 0.334E+01 -.308E+00   0.993E-01 -.932E-01 -.293E-03
   -.614E+01 0.173E+01 0.160E+00   0.600E+01 -.177E+01 -.160E+00   0.645E-01 0.159E-01 -.199E-02
   -.969E+01 -.184E+01 0.396E+00   0.946E+01 0.217E+01 -.393E+00   0.117E+00 -.284E+00 -.293E-02
   0.363E+01 -.396E+01 0.270E+00   -.375E+01 0.418E+01 -.271E+00   0.140E+00 -.259E+00 -.617E-03
   0.932E+01 -.423E+01 0.451E+00   -.937E+01 0.427E+01 -.451E+00   0.193E+00 -.739E-01 0.240E-02
   -.861E+00 0.384E+00 0.391E+00   0.383E+00 -.257E+00 -.391E+00   0.405E+00 -.525E-01 0.232E-02
   -.664E+01 -.390E+01 -.566E+00   0.481E+01 0.359E+01 0.568E+00   0.173E+01 0.207E-01 -.539E-02
   0.360E+01 -.746E+01 0.152E+00   -.413E+01 0.804E+01 -.152E+00   0.593E+00 -.544E+00 0.152E-02
   0.108E+02 -.350E+01 0.250E+00   -.112E+02 0.344E+01 -.250E+00   0.348E+00 -.438E-01 -.123E-03
   -.160E+01 -.179E+01 0.137E+00   0.110E+01 0.179E+01 -.135E+00   0.220E+00 -.504E-01 0.254E-02
   -.477E+02 0.186E+02 -.282E+00   0.513E+02 -.189E+02 0.284E+00   -.417E+01 0.653E+00 -.398E-02
   0.109E+01 0.738E+01 -.395E+00   -.134E+01 -.875E+01 0.400E+00   0.478E+00 0.112E+01 -.292E-02
   0.507E+01 0.181E+01 0.175E+00   -.466E+01 -.183E+01 -.174E+00   -.148E+00 0.630E-01 -.161E-02
   -.875E+01 0.443E+01 0.410E+00   0.903E+01 -.437E+01 -.413E+00   -.297E+00 0.451E-01 0.515E-02
   -.135E+02 -.386E+01 0.278E+00   0.135E+02 0.393E+01 -.275E+00   -.311E-01 -.190E+00 -.110E-02
   -.118E+02 -.298E+00 0.389E+00   0.124E+02 0.569E+00 -.393E+00   -.502E+00 -.146E+00 0.535E-02
   0.236E+01 -.926E+00 0.186E+00   -.196E+01 0.800E+00 -.184E+00   -.360E+00 0.456E-01 -.233E-02
   -.812E+01 0.394E+01 0.389E-01   0.814E+01 -.399E+01 -.381E-01   -.146E+00 0.721E-01 -.290E-02
   -.853E+01 -.294E-01 0.323E+00   0.847E+01 0.217E+00 -.323E+00   0.619E-01 -.129E+00 0.120E-02
   -.184E+00 -.414E+01 0.248E+00   0.418E+00 0.446E+01 -.248E+00   -.800E-01 -.248E+00 0.101E-02
   0.696E+01 -.197E+01 0.125E-01   -.684E+01 0.203E+01 -.131E-01   -.286E-01 -.311E-01 -.555E-03
   0.152E+02 0.100E+02 0.105E+01   -.110E+02 -.157E+02 -.105E+01   -.422E+01 0.575E+01 0.702E-02
   -.273E+02 -.130E+02 -.169E+01   0.324E+02 0.189E+02 0.173E+01   -.520E+01 -.622E+01 -.499E-01
   -.620E+01 -.231E+02 -.743E+00   0.138E+01 0.294E+02 0.769E+00   0.455E+01 -.642E+01 -.305E-01
   0.137E+02 0.149E+02 0.457E+00   -.185E+02 -.207E+02 -.471E+00   0.496E+01 0.600E+01 0.118E-01
   0.291E+02 -.174E+02 -.322E+01   -.199E+02 0.323E+02 0.338E+01   -.915E+01 -.146E+02 -.156E+00
   -.137E+02 0.349E+02 -.865E+00   0.415E+01 -.501E+02 0.929E+00   0.933E+01 0.147E+02 -.624E-01
   -.365E+02 -.306E+02 0.127E+01   0.334E+02 0.381E+02 -.127E+01   0.313E+01 -.688E+01 0.528E-02
   0.365E+01 0.311E+02 -.598E+01   -.138E+00 -.392E+02 0.590E+01   -.306E+01 0.803E+01 0.733E-01
 -----------------------------------------------------------------------------------------------
   -.565E+00 0.165E+00 0.150E+00   -.412E-12 -.284E-13 -.355E-14   0.751E+00 -.106E+00 -.139E+00
 
 
 POSITION                                       TOTAL-FORCE (eV/Angst)
 -----------------------------------------------------------------------------------
      2.83311     12.51219     10.01120         0.014009     -0.092930      0.001401
      0.67907      1.23031     10.01137        -0.179969     -0.055875      0.003348
      1.42042     12.51780     10.01131         0.023210     -0.066484      0.002708
      3.49122      1.21486     10.01150         0.082917      0.061968      0.001036
      2.78914      2.44853     10.01404        -0.073994     -0.071561      0.003258
      0.69198      3.72938     10.01397        -0.085928     -0.088904      0.000986
      1.37878      2.47327     10.01328         0.123959      0.091334     -0.002743
      3.49605      3.68267     10.01889        -0.154722      0.020219     -0.000960
      0.77140      6.24185     10.01351        -0.287948      0.127030      0.000145
      1.44847      4.95178     10.01609         0.722620     -0.214603      0.005140
      0.77461      8.74847     10.01175        -0.075863      0.004079      0.003579
      1.51363      7.49020     10.01187         0.074077      0.255453      0.000800
      3.56316      8.80098     10.01143        -0.448347     -0.251710      0.001412
      2.85326     10.03172     10.01214        -0.106274      0.049118     -0.003110
      0.73526     11.26586     10.01207        -0.071945      0.085060     -0.002951
      1.44259     10.01390     10.01217         0.133853     -0.064143     -0.003309
      3.54182     11.27959     10.01191        -0.095024      0.082736     -0.001175
      7.06301     12.53235     10.01028         0.122436     -0.095206      0.001681
      4.89875      1.23078     10.01063        -0.141217     -0.081509      0.009148
      5.64763     12.52673     10.01042        -0.105448     -0.041751      0.002111
      7.71563      1.24081     10.01061         0.060626     -0.052672      0.004835
      7.00488      2.47102     10.01322         0.519297      0.215704      0.004232
      5.57584      2.48597     10.01385        -0.330526      0.322341      0.007855
      7.06396      7.59665     10.01396         0.339622     -0.154448      0.003787
      4.99408      8.78346     10.01236         0.326014     -0.301603      0.003453
      7.77617      8.82872     10.01297        -0.018811      0.053413      0.000297
      7.07655     10.06077     10.01260        -0.072285     -0.069096     -0.003196
      4.95628     11.28264     10.01201         0.097751      0.050262     -0.005513
      5.66949     10.04005     10.01282         0.148272      0.068039     -0.004602
      7.77249     11.30090     10.01131        -0.023386      0.100692     -0.000838
     11.27718     12.53495     10.01168        -0.082843     -0.017755     -0.001771
      9.12661      1.26123     10.01148        -0.115818      0.042176     -0.000224
      9.83297      0.00960     10.01140         0.039801     -0.056801     -0.001577
     11.92124      1.25252     10.01131         0.169113     -0.039392      0.002245
     11.21731      2.51439     10.01200        -0.060861      0.077394      0.002623
      9.05971      3.78612     10.01584        -0.022425     -0.286676     -0.004188
      9.79654      2.52837     10.01288         0.108476      0.002347      0.001003
     11.92753      3.75905     10.01289         0.034373     -0.112475      0.000033
     11.22954      5.02130     10.01348        -0.279504     -0.049063      0.004632
      9.12705      6.32508     10.01538        -0.734212      0.299262     -0.001711
      9.80195      5.03519     10.01535         0.272129     -0.192559      0.001766
     11.99897      6.25501     10.01295         0.257878      0.053480     -0.001020
     11.29845      7.51839     10.01205        -0.039244      0.109535      0.002067
      9.18788      8.80269     10.01229        -0.050071     -0.127701      0.001890
      9.88173      7.54734     10.01263         0.089430      0.115664      0.001678
     12.00724      8.76229     10.01201         0.035324     -0.083534     -0.000863
     11.30043     10.02233     10.01214        -0.152784      0.032201     -0.002271
      9.18375     11.29593     10.01130        -0.008594      0.056114      0.001656
      9.88850     10.04386     10.01176         0.160118      0.062241      0.000845
     11.98109     11.27845     10.01211         0.105018      0.021757     -0.001191
      2.93813      7.53998     10.01081        -0.256888      0.434115      0.002082
      4.92064      3.75758     10.01996        -0.413765     -0.688328     -0.012396
      7.63499      3.73325     10.01724        -0.040018     -0.514240     -0.006861
      5.64161      7.51170     10.01317         0.431904      0.566746     -0.002169
      2.79951      4.87920     10.02096        -0.749209     -0.877730     -0.014739
      7.77884      6.40446     10.01721         0.556410      0.791634     -0.003926
      4.17823      6.08566     10.01407        -0.557257      0.577524      0.010239
      6.35974      5.19182     10.02417         0.786542     -0.080890     -0.010665
 -----------------------------------------------------------------------------------
    total drift:                               -0.006092     -0.001956      0.000235


--------------------------------------------------------------------------------------------------------



  FREE ENERGIE OF THE ION-ELECTRON SYSTEM (eV)
  ---------------------------------------------------
  free  energy   TOTEN  =      -606.80480922 eV

  energy  without entropy=     -606.80480922  energy(sigma->0) =     -606.80480922
 


--------------------------------------------------------------------------------------------------------


    POTLOK:  cpu time    3.4258: real time    3.4263


--------------------------------------------------------------------------------------------------------


 stress matrix after NEB project (eV)
    -12.35708     13.98581     -0.00171
     13.98616    -48.93274     -0.01613
     -0.00178     -0.01763     -0.31012
  FORCES: max atom, RMS     1.154097    0.385327
  FORCE total and by dimension    2.934563    0.877730
  Stress total and by dimension   54.207219   48.932742
 writing wavefunctions
     LOOP+:  cpu time29578.1984: real time29590.2496
    4ORBIT:  cpu time    0.0000: real time    0.0000
 


 total charge     
 
# of ion       s       p       d       tot
------------------------------------------
    1        0.872   1.788   0.000   2.659
    2        0.868   1.778   0.000   2.647
    3        0.868   1.776   0.000   2.644
    4        0.873   1.795   0.000   2.667
    5        0.873   1.799   0.000   2.672
    6        0.865   1.776   0.000   2.641
    7        0.871   1.772   0.000   2.644
    8        0.870   1.732   0.000   2.603
    9        0.859   1.737   0.000   2.596
   10        0.860   1.731   0.000   2.591
   11        0.864   1.750   0.000   2.614
   12        0.858   1.728   0.000   2.586
   13        0.880   1.779   0.000   2.659
   14        0.874   1.786   0.000   2.659
   15        0.869   1.776   0.000   2.645
   16        0.867   1.776   0.000   2.643
   17        0.871   1.785   0.000   2.656
   18        0.872   1.784   0.000   2.655
   19        0.871   1.783   0.000   2.654
   20        0.870   1.779   0.000   2.648
   21        0.874   1.787   0.000   2.661
   22        0.880   1.775   0.000   2.655
   23        0.874   1.753   0.000   2.628
   24        0.868   1.729   0.000   2.598
   25        0.874   1.753   0.000   2.627
   26        0.873   1.799   0.000   2.672
   27        0.873   1.796   0.000   2.670
   28        0.870   1.777   0.000   2.647
   29        0.871   1.783   0.000   2.654
   30        0.872   1.789   0.000   2.661
   31        0.868   1.775   0.000   2.644
   32        0.866   1.775   0.000   2.641
   33        0.869   1.776   0.000   2.646
   34        0.867   1.769   0.000   2.636
   35        0.865   1.757   0.000   2.622
   36        0.858   1.726   0.000   2.584
   37        0.864   1.749   0.000   2.613
   38        0.864   1.764   0.000   2.628
   39        0.860   1.740   0.000   2.600
   40        0.861   1.729   0.000   2.591
   41        0.859   1.739   0.000   2.598
   42        0.859   1.741   0.000   2.601
   43        0.864   1.764   0.000   2.628
   44        0.871   1.770   0.000   2.641
   45        0.865   1.777   0.000   2.642
   46        0.865   1.758   0.000   2.623
   47        0.867   1.768   0.000   2.635
   48        0.868   1.776   0.000   2.644
   49        0.868   1.778   0.000   2.646
   50        0.868   1.775   0.000   2.643
   51        0.876   1.662   0.000   2.538
   52        0.861   1.659   0.000   2.520
   53        0.876   1.666   0.000   2.542
   54        0.859   1.658   0.000   2.517
   55        1.239   2.689   0.000   3.928
   56        1.238   2.697   0.000   3.935
   57        0.475   0.535   7.369   8.379
   58        0.478   0.541   6.324   7.343
--------------------------------------------------
tot         50.302 101.466  13.692 165.461
 


 magnetization (x)
 
# of ion       s       p       d       tot
------------------------------------------
    1        0.000   0.006   0.000   0.007
    2        0.001   0.007   0.000   0.008
    3       -0.000  -0.005   0.000  -0.005
    4       -0.000  -0.004   0.000  -0.005
    5       -0.000   0.004   0.000   0.004
    6        0.001   0.010   0.000   0.011
    7       -0.001  -0.006   0.000  -0.007
    8       -0.001   0.001   0.000   0.000
    9        0.001   0.017   0.000   0.018
   10       -0.001  -0.016   0.000  -0.017
   11       -0.000   0.004   0.000   0.004
   12       -0.001  -0.009   0.000  -0.010
   13       -0.001  -0.012   0.000  -0.013
   14        0.000   0.006   0.000   0.006
   15        0.000   0.006   0.000   0.007
   16       -0.000  -0.005   0.000  -0.006
   17       -0.001  -0.011   0.000  -0.011
   18        0.001   0.010   0.000   0.010
   19        0.000   0.008   0.000   0.008
   20       -0.001  -0.010   0.000  -0.010
   21       -0.001  -0.012   0.000  -0.013
   22        0.001   0.016   0.000   0.017
   23       -0.002  -0.013   0.000  -0.015
   24        0.000   0.003   0.000   0.003
   25        0.001   0.011   0.000   0.012
   26       -0.001  -0.008   0.000  -0.008
   27        0.000   0.006   0.000   0.006
   28        0.001   0.009   0.000   0.009
   29       -0.001  -0.009   0.000  -0.010
   30       -0.001  -0.007   0.000  -0.007
   31        0.001   0.007   0.000   0.007
   32        0.001   0.009   0.000   0.010
   33       -0.001  -0.008   0.000  -0.008
   34       -0.001  -0.008   0.000  -0.009
   35        0.001   0.008   0.000   0.009
   36        0.001   0.013   0.000   0.014
   37       -0.001  -0.010   0.000  -0.012
   38       -0.001  -0.011   0.000  -0.012
   39        0.001   0.014   0.000   0.016
   40        0.001   0.012   0.000   0.013
   41       -0.002  -0.022   0.000  -0.023
   42       -0.001  -0.012   0.000  -0.013
   43        0.001   0.009   0.000   0.010
   44        0.000   0.006   0.000   0.006
   45       -0.001  -0.009   0.000  -0.009
   46       -0.001  -0.008   0.000  -0.008
   47        0.001   0.007   0.000   0.008
   48        0.001   0.007   0.000   0.007
   49       -0.001  -0.007   0.000  -0.008
   50       -0.000  -0.005   0.000  -0.006
   51       -0.010  -0.029   0.000  -0.039
   52       -0.004  -0.004   0.000  -0.008
   53       -0.017  -0.086   0.000  -0.103
   54       -0.005  -0.032   0.000  -0.037
   55       -0.002   0.013   0.000   0.010
   56       -0.007  -0.053   0.000  -0.060
   57        0.038  -0.008   1.038   1.069
   58        0.044  -0.004   2.006   2.046
--------------------------------------------------
tot          0.029  -0.212   3.045   2.862
 

 total amount of memory used by VASP MPI-rank0   180145. kBytes
=======================================================================

   base      :      30000. kBytes
   nonl-proj :       5335. kBytes
   fftplans  :      14250. kBytes
   grid      :      36827. kBytes
   one-center:         62. kBytes
   HF        :         23. kBytes
   nonlr-proj:      16542. kBytes
   wavefun   :      77106. kBytes
 
  
  
 General timing and accounting informations for this job:
 ========================================================
  
                  Total CPU time used (sec):    29671.203
                            User time (sec):    29628.699
                          System time (sec):       42.505
                         Elapsed time (sec):    29687.100
  
                   Maximum memory used (kb):      429944.
                   Average memory used (kb):           0.
  
                          Minor page faults:       230821
                          Major page faults:            0
                 Voluntary context switches:         1144
