 vasp.5.4.4.18Apr17-6-g9f103f2a35 (build Feb 25 2019 10:51:38) complex          
  
 executed on             LinuxIFC date 2021.03.09  23:38:40
 running on   80 total cores
 distrk:  each k-point on   40 cores,    2 groups
 distr:  one band on NCORES_PER_BAND=  40 cores,    1 groups


--------------------------------------------------------------------------------------------------------


 INCAR:
 POTCAR:    PAW_PBE C 08Apr2002                   
 POTCAR:    PAW_PBE N 08Apr2002                   
 POTCAR:    PAW_PBE Fe 06Sep2000                  

 ----------------------------------------------------------------------------- 
|                                                                             |
|           W    W    AA    RRRRR   N    N  II  N    N   GGGG   !!!           |
|           W    W   A  A   R    R  NN   N  II  NN   N  G    G  !!!           |
|           W    W  A    A  R    R  N N  N  II  N N  N  G       !!!           |
|           W WW W  AAAAAA  RRRRR   N  N N  II  N  N N  G  GGG   !            |
|           WW  WW  A    A  R   R   N   NN  II  N   NN  G    G                |
|           W    W  A    A  R    R  N    N  II  N    N   GGGG   !!!           |
|                                                                             |
|      For optimal performance we recommend to set                            |
|        NCORE= 4 - approx SQRT( number of cores)                             |
|      NCORE specifies how many cores store one orbital (NPAR=cpu/NCORE).     |
|      This setting can  greatly improve the performance of VASP for DFT.     |
|      The default,   NCORE=1            might be grossly inefficient         |
|      on modern multi-core architectures or massively parallel machines.     |
|      Do your own testing !!!!                                               |
|      Unfortunately you need to use the default for GW and RPA calculations. |
|      (for HF NCORE is supported but not extensively tested yet)             |
|                                                                             |
 ----------------------------------------------------------------------------- 


 ----------------------------------------------------------------------------- 
|                                                                             |
|           W    W    AA    RRRRR   N    N  II  N    N   GGGG   !!!           |
|           W    W   A  A   R    R  NN   N  II  NN   N  G    G  !!!           |
|           W    W  A    A  R    R  N N  N  II  N N  N  G       !!!           |
|           W WW W  AAAAAA  RRRRR   N  N N  II  N  N N  G  GGG   !            |
|           WW  WW  A    A  R   R   N   NN  II  N   NN  G    G                |
|           W    W  A    A  R    R  N    N  II  N    N   GGGG   !!!           |
|                                                                             |
|      You have enabled k-point parallelism (KPAR>1).                         |
|      This developmental code was originally  written by Paul Kent at ORNL,  |
|      and carefully double checked in Vienna.                                |
|      GW as well as linear response parallelism added by Martijn Marsman     |
|      and Georg Kresse.                                                      |
|      Carefully verify results versus KPAR=1.                                |
|      Report problems to Paul Kent and Vienna.                               |
|                                                                             |
 ----------------------------------------------------------------------------- 

 POTCAR:    PAW_PBE C 08Apr2002                   
   VRHFIN =C: s2p2                                                              
   LEXCH  = PE                                                                  
   EATOM  =   147.1560 eV,   10.8157 Ry                                         
                                                                                
   TITEL  = PAW_PBE C 08Apr2002                                                 
   LULTRA =        F    use ultrasoft PP ?                                      
   IUNSCR =        1    unscreen: 0-lin 1-nonlin 2-no                           
   RPACOR =    1.200    partial core radius                                     
   POMASS =   12.011; ZVAL   =    4.000    mass and valenz                      
   RCORE  =    1.500    outmost cutoff radius                                   
   RWIGS  =    1.630; RWIGS  =    0.863    wigner-seitz radius (au A)           
   ENMAX  =  400.000; ENMIN  =  300.000 eV                                      
   ICORE  =        2    local potential                                         
   LCOR   =        T    correct aug charges                                     
   LPAW   =        T    paw PP                                                  
   EAUG   =  644.873                                                            
   DEXC   =    0.000                                                            
   RMAX   =    1.529    core radius for proj-oper                               
   RAUG   =    1.300    factor for augmentation sphere                          
   RDEP   =    1.501    radius for radial grids                                 
   RDEPT  =    1.300    core radius for aug-charge                              
                                                                                
   Atomic configuration                                                         
    4 entries                                                                   
     n  l   j            E        occ.                                          
     1  0  0.50      -273.3789   2.0000                                         
     2  0  0.50       -13.7508   2.0000                                         
     2  1  0.50        -5.2854   2.0000                                         
     3  2  1.50        -5.4423   0.0000                                         
   Description                                                                  
     l       E           TYP  RCUT    TYP  RCUT                                 
     0    -13.7508458     23  1.200                                             
     0     -8.2022199     23  1.200                                             
     1     -5.2854383     23  1.500                                             
     1     34.0145650     23  1.500                                             
     2     -5.4423304      7  1.500                                             
  local pseudopotential read in
  partial core-charges read in
  partial kinetic energy density read in
  atomic valenz-charges read in
  non local Contribution for L=           0  read in
    real space projection operators read in
  non local Contribution for L=           0  read in
    real space projection operators read in
  non local Contribution for L=           1  read in
    real space projection operators read in
  non local Contribution for L=           1  read in
    real space projection operators read in
    PAW grid and wavefunctions read in
 
   number of l-projection  operators is LMAX  =           4
   number of lm-projection operators is LMMAX =           8
 
 POTCAR:    PAW_PBE N 08Apr2002                   
   VRHFIN =N: s2p3                                                              
   LEXCH  = PE                                                                  
   EATOM  =   264.5486 eV,   19.4438 Ry                                         
                                                                                
   TITEL  = PAW_PBE N 08Apr2002                                                 
   LULTRA =        F    use ultrasoft PP ?                                      
   IUNSCR =        1    unscreen: 0-lin 1-nonlin 2-no                           
   RPACOR =    1.200    partial core radius                                     
   POMASS =   14.001; ZVAL   =    5.000    mass and valenz                      
   RCORE  =    1.500    outmost cutoff radius                                   
   RWIGS  =    1.400; RWIGS  =    0.741    wigner-seitz radius (au A)           
   ENMAX  =  400.000; ENMIN  =  300.000 eV                                      
   ICORE  =        2    local potential                                         
   LCOR   =        T    correct aug charges                                     
   LPAW   =        T    paw PP                                                  
   EAUG   =  627.112                                                            
   DEXC   =    0.000                                                            
   RMAX   =    1.529    core radius for proj-oper                               
   RAUG   =    1.300    factor for augmentation sphere                          
   RDEP   =    1.514    radius for radial grids                                 
   RDEPT  =    1.338    core radius for aug-charge                              
                                                                                
   Atomic configuration                                                         
    4 entries                                                                   
     n  l   j            E        occ.                                          
     1  0  0.50      -384.7179   2.0000                                         
     2  0  0.50       -18.5828   2.0000                                         
     2  1  0.50        -7.0898   3.0000                                         
     3  2  1.50        -6.8029   0.0000                                         
   Description                                                                  
     l       E           TYP  RCUT    TYP  RCUT                                 
     0    -18.5828119     23  1.200                                             
     0    -13.5018863     23  1.200                                             
     1     -7.0897853     23  1.500                                             
     1      9.5240782     23  1.500                                             
     2     -6.8029130      7  1.500                                             
  local pseudopotential read in
  partial core-charges read in
  partial kinetic energy density read in
  atomic valenz-charges read in
  non local Contribution for L=           0  read in
    real space projection operators read in
  non local Contribution for L=           0  read in
    real space projection operators read in
  non local Contribution for L=           1  read in
    real space projection operators read in
  non local Contribution for L=           1  read in
    real space projection operators read in
    PAW grid and wavefunctions read in
 
   number of l-projection  operators is LMAX  =           4
   number of lm-projection operators is LMMAX =           8
 
 POTCAR:    PAW_PBE Fe 06Sep2000                  
   VRHFIN =Fe:  d7 s1                                                           
   LEXCH  = PE                                                                  
   EATOM  =   594.3153 eV,   43.6809 Ry                                         
                                                                                
   TITEL  = PAW_PBE Fe 06Sep2000                                                
   LULTRA =        F    use ultrasoft PP ?                                      
   IUNSCR =        1    unscreen: 0-lin 1-nonlin 2-no                           
   RPACOR =    2.000    partial core radius                                     
   POMASS =   55.847; ZVAL   =    8.000    mass and valenz                      
   RCORE  =    2.300    outmost cutoff radius                                   
   RWIGS  =    2.460; RWIGS  =    1.302    wigner-seitz radius (au A)           
   ENMAX  =  267.882; ENMIN  =  200.911 eV                                      
   RCLOC  =    1.701    cutoff for local pot                                    
   LCOR   =        T    correct aug charges                                     
   LPAW   =        T    paw PP                                                  
   EAUG   =  511.368                                                            
   DEXC   =    0.000                                                            
   RMAX   =    2.356    core radius for proj-oper                               
   RAUG   =    1.300    factor for augmentation sphere                          
   RDEP   =    2.442    radius for radial grids                                 
   RDEPT  =    1.890    core radius for aug-charge                              
                                                                                
   Atomic configuration                                                         
    9 entries                                                                   
     n  l   j            E        occ.                                          
     1  0  0.50     -6993.8440   2.0000                                         
     2  0  0.50      -814.6047   2.0000                                         
     2  1  1.50      -693.3689   6.0000                                         
     3  0  0.50       -89.4732   2.0000                                         
     3  1  1.50       -55.6373   6.0000                                         
     3  2  2.50        -3.8151   7.0000                                         
     4  0  0.50        -4.2551   1.0000                                         
     4  1  1.50        -3.4015   0.0000                                         
     4  3  2.50        -1.3606   0.0000                                         
   Description                                                                  
     l       E           TYP  RCUT    TYP  RCUT                                 
     2     -3.8151135     23  2.300                                             
     2     -5.1756961     23  2.300                                             
     0     -4.2550963     23  2.300                                             
     0      7.2035603     23  2.300                                             
     1     -2.7211652     23  2.300                                             
     1     18.4316424     23  2.300                                             
  local pseudopotential read in
  partial core-charges read in
  partial kinetic energy density read in
  atomic valenz-charges read in
  non local Contribution for L=           2  read in
    real space projection operators read in
  non local Contribution for L=           2  read in
    real space projection operators read in
  non local Contribution for L=           0  read in
    real space projection operators read in
  non local Contribution for L=           0  read in
    real space projection operators read in
  non local Contribution for L=           1  read in
    real space projection operators read in
  non local Contribution for L=           1  read in
    real space projection operators read in
    PAW grid and wavefunctions read in
 
   number of l-projection  operators is LMAX  =           6
   number of lm-projection operators is LMMAX =          18
 

 ----------------------------------------------------------------------------- 
|                                                                             |
|  ADVICE TO THIS USER RUNNING 'VASP/VAMP'   (HEAR YOUR MASTER'S VOICE ...):  |
|                                                                             |
|      You have a (more or less) 'large supercell' and for larger cells       |
|      it might be more efficient to use real space projection opertators     |
|      So try LREAL= Auto  in the INCAR   file.                               |
|      Mind:          For very  accurate calculation you might also keep the  |
|      reciprocal projection scheme          (i.e. LREAL=.FALSE.)             |
|                                                                             |
 ----------------------------------------------------------------------------- 

  PAW_PBE C 08Apr2002                   :
 energy of atom  1       EATOM= -147.1560
 kinetic energy error for atom=    0.0076 (will be added to EATOM!!)
  PAW_PBE N 08Apr2002                   :
 energy of atom  2       EATOM= -264.5486
 kinetic energy error for atom=    0.0138 (will be added to EATOM!!)
  PAW_PBE Fe 06Sep2000                  :
 energy of atom  3       EATOM= -594.3153
 kinetic energy error for atom=    0.0026 (will be added to EATOM!!)
 
 
 POSCAR:  C  N Fe                                
  positions in cartesian coordinates
  No initial velocities read in
 exchange correlation table for  LEXCH =        8
   RHO(1)=    0.500       N(1)  =     2000
   RHO(2)=  100.500       N(2)  =     4000

 VTST: version 3.2, (02/03/18)

 CHAIN: initializing optimizer
 
 OPT: Using VASP Conjugate-Gradient optimizer
 CHAIN: Read ICHAIN            0
 
 POSCAR:  C  N Fe                                
  positions in cartesian coordinates
  No initial velocities read in
 


--------------------------------------------------------------------------------------------------------


 ion  position               nearest neighbor table
   1  0.222  0.002  0.500-  19 1.42   3 1.42   4 1.44
   2  0.057  0.102  0.499-  36 1.43   3 1.43   7 1.44
   3  0.111  0.002  0.499-   1 1.42   2 1.43  17 1.43
   4  0.278  0.103  0.502-  21 1.42   5 1.44   1 1.44
   5  0.225  0.205  0.504-   7 1.43   4 1.44   8 1.45
   6  0.057  0.303  0.500-   7 1.43  40 1.43  11 1.43
   7  0.113  0.203  0.501-   6 1.43   5 1.43   2 1.44
   8  0.282  0.306  0.509-  25 1.45   5 1.45   9 1.46
   9  0.223  0.407  0.509-  53 1.38  11 1.44   8 1.46
  10  0.054  0.503  0.500-  14 1.43  44 1.44  11 1.44
  11  0.111  0.404  0.502-   6 1.43   9 1.44  10 1.44
  12  0.222  0.603  0.504-  53 1.38  14 1.43  15 1.45
  13  0.053  0.702  0.497-  14 1.42  18 1.43  48 1.44
  14  0.110  0.603  0.499-  13 1.42  10 1.43  12 1.43
  15  0.282  0.702  0.500-  56 1.41  16 1.44  12 1.45
  16  0.223  0.801  0.498-  15 1.44  18 1.44  19 1.44
  17  0.056  0.901  0.497-  18 1.43  52 1.43   3 1.43
  18  0.111  0.801  0.497-  13 1.43  17 1.43  16 1.44
  19  0.277  0.902  0.498-   1 1.42  30 1.43  16 1.44
  20  0.555  0.001  0.497-  32 1.42  23 1.42  22 1.42
  21  0.389  0.101  0.500-   4 1.42  26 1.42  22 1.42
  22  0.444  0.002  0.498-  20 1.42  21 1.42  30 1.43
  23  0.612  0.099  0.497-  24 1.41  20 1.42  34 1.43
  24  0.557  0.197  0.499-  23 1.41  27 1.41  26 1.42
  25  0.394  0.301  0.510-  54 1.39  26 1.43   8 1.45
  26  0.446  0.200  0.502-  21 1.42  24 1.42  25 1.43
  27  0.615  0.295  0.499-  28 1.39  38 1.41  24 1.41
  28  0.561  0.391  0.506-  54 1.37  55 1.38  27 1.39
  29  0.554  0.804  0.498-  57 1.38  32 1.41  31 1.43
  30  0.388  0.902  0.498-  31 1.41  19 1.43  22 1.43
  31  0.443  0.803  0.499-  56 1.40  30 1.41  29 1.43
  32  0.610  0.902  0.497-  29 1.41  20 1.42  50 1.43
  33  0.890  0.001  0.496-  52 1.42  35 1.43  36 1.44
  34  0.724  0.100  0.495-  35 1.42  23 1.43  39 1.43
  35  0.778  0.000  0.495-  34 1.42  50 1.43  33 1.43
  36  0.946  0.101  0.497-  37 1.43   2 1.43  33 1.44
  37  0.891  0.201  0.496-  39 1.42  36 1.43  40 1.43
  38  0.725  0.298  0.496-  39 1.41  27 1.41  43 1.42
  39  0.780  0.199  0.495-  38 1.41  37 1.42  34 1.43
  40  0.945  0.302  0.497-  37 1.43   6 1.43  41 1.43
  41  0.889  0.402  0.498-  43 1.43  44 1.43  40 1.43
  42  0.717  0.497  0.500-  55 1.39  43 1.44  47 1.44
  43  0.777  0.400  0.498-  38 1.42  41 1.43  42 1.44
  44  0.942  0.502  0.499-  41 1.43  10 1.44  45 1.44
  45  0.883  0.601  0.498-  48 1.43  44 1.44  47 1.46
  46  0.714  0.702  0.498-  57 1.39  51 1.44  47 1.45
  47  0.770  0.600  0.499-  42 1.44  46 1.45  45 1.46
  48  0.941  0.700  0.497-  49 1.42  45 1.43  13 1.44
  49  0.886  0.800  0.496-  48 1.42  51 1.43  52 1.44
  50  0.721  0.901  0.496-  51 1.43  32 1.43  35 1.43
  51  0.774  0.800  0.497-  50 1.43  49 1.43  46 1.44
  52  0.944  0.900  0.496-  33 1.42  17 1.43  49 1.44
  53  0.273  0.506  0.515-   9 1.38  12 1.38  58 1.95
  54  0.456  0.392  0.518-  28 1.37  25 1.39  58 1.93
  55  0.609  0.490  0.504-  28 1.38  42 1.39  59 1.89
  56  0.392  0.703  0.500-  31 1.40  15 1.41  59 1.95
  57  0.606  0.706  0.498-  29 1.38  46 1.39  59 1.90
  58  0.401  0.513  0.568-  54 1.93  53 1.95  59 2.10
  59  0.503  0.596  0.503-  55 1.89  57 1.90  56 1.95  58 2.10
 
  LATTYP: Found a simple orthorhombic cell.
 ALAT       =    12.4000000000
 B/A-ratio  =     1.0330645161
 C/A-ratio  =     1.6129032258
  
  Lattice vectors:
  
 A1 = (   0.0000000000, -12.4000000000,   0.0000000000)
 A2 = ( -12.8100000000,   0.0000000000,   0.0000000000)
 A3 = (   0.0000000000,   0.0000000000, -20.0000000000)


Analysis of symmetry for initial positions (statically):
=====================================================================
 Subroutine PRICEL returns:
 Original cell was already a primitive cell.
 

 Routine SETGRP: Setting up the symmetry group for a 
 simple orthorhombic supercell.


 Subroutine GETGRP returns: Found  1 space group operations
 (whereof  1 operations were pure point group operations)
 out of a pool of  8 trial point group operations.


The static configuration has the point symmetry C_1 .


Analysis of symmetry for dynamics (positions and initial velocities):
=====================================================================
 Subroutine PRICEL returns:
 Original cell was already a primitive cell.
 

 Routine SETGRP: Setting up the symmetry group for a 
 simple orthorhombic supercell.


 Subroutine GETGRP returns: Found  1 space group operations
 (whereof  1 operations were pure point group operations)
 out of a pool of  8 trial point group operations.


The dynamic configuration has the point symmetry C_1 .


Analysis of structural, dynamic, and magnetic symmetry:
=====================================================================
 Subroutine PRICEL returns:
 Original cell was already a primitive cell.
 

 Routine SETGRP: Setting up the symmetry group for a 
 simple orthorhombic supercell.


 Subroutine GETGRP returns: Found  1 space group operations
 (whereof  1 operations were pure point group operations)
 out of a pool of  8 trial point group operations.


The magnetic configuration has the point symmetry C_1 .


 Subroutine INISYM returns: Found  1 space group operations
 (whereof  1 operations are pure point group operations),
 and found     1 'primitive' translations

 
 
 KPOINTS: KPOINTS created by Atomic Simulation Env

Automatic generation of k-mesh.
Space group operators:
 irot       det(A)        alpha          n_x          n_y          n_z        tau_x        tau_y        tau_z
    1     1.000000     0.000000     1.000000     0.000000     0.000000     0.000000     0.000000     0.000000
 
 Subroutine IBZKPT returns following result:
 ===========================================
 
 Found      2 irreducible k-points:
 
 Following reciprocal coordinates:
            Coordinates               Weight
  0.250000  0.250000  0.000000      2.000000
 -0.250000  0.250000  0.000000      2.000000
 
 Following cartesian coordinates:
            Coordinates               Weight
  0.019516  0.020161  0.000000      2.000000
 -0.019516  0.020161  0.000000      2.000000
 
 
 Subroutine IBZKPT_HF returns following result:
 ==============================================
 
 Found      4 k-points in 1st BZ
 the following      4 k-points will be used (e.g. in the exchange kernel)
 Following reciprocal coordinates:   # in IRBZ
  0.250000  0.250000  0.000000    0.25000000   1 t-inv F
 -0.250000  0.250000  0.000000    0.25000000   2 t-inv F
 -0.250000 -0.250000  0.000000    0.25000000   1 t-inv T
  0.250000 -0.250000  0.000000    0.25000000   2 t-inv T


--------------------------------------------------------------------------------------------------------




 Dimension of arrays:
   k-points           NKPTS =      2   k-points in BZ     NKDIM =      4   number of bands    NBANDS=    156
   number of dos      NEDOS =    301   number of ions     NIONS =     59
   non local maximal  LDIM  =      6   non local SUM 2l+1 LMDIM =     18
   total plane-waves  NPLWV = ******
   max r-space proj   IRMAX =      1   max aug-charges    IRDMAX=  14730
   dimension x,y,z NGX =    96 NGY =   90 NGZ =  150
   dimension x,y,z NGXF=   192 NGYF=  180 NGZF=  300
   support grid    NGXF=   192 NGYF=  180 NGZF=  300
   ions per type =              52   5   2
   NGX,Y,Z   is equivalent  to a cutoff of  12.46, 12.07, 12.47 a.u.
   NGXF,Y,Z  is equivalent  to a cutoff of  24.92, 24.13, 24.94 a.u.

 SYSTEM =  unknown system                          
 POSCAR =   C  N Fe                                

 Startparameter for this run:
   NWRITE =      2    write-flag & timer
   PREC   = accura    normal or accurate (medium, high low for compatibility)
   ISTART =      1    job   : 0-new  1-cont  2-samecut
   ICHARG =      0    charge: 1-file 2-atom 10-const
   ISPIN  =      2    spin polarized calculation?
   LNONCOLLINEAR =      F non collinear calculations
   LSORBIT =      F    spin-orbit coupling
   INIWAV =      1    electr: 0-lowe 1-rand  2-diag
   LASPH  =      T    aspherical Exc in radial PAW
   METAGGA=      F    non-selfconsistent MetaGGA calc.

 Electronic Relaxation 1
   ENCUT  =  500.0 eV  36.75 Ry    6.06 a.u.  23.36 22.61 36.46*2*pi/ulx,y,z
   ENINI  =  500.0     initial cutoff
   ENAUG  =  644.9 eV  augmentation charge cutoff
   NELM   =    250;   NELMIN=  2; NELMDL=  0     # of ELM steps 
   EDIFF  = 0.1E-03   stopping-criterion for ELM
   LREAL  =      F    real-space projection
   NLSPLINE    = F    spline interpolate recip. space projectors
   LCOMPAT=      F    compatible to vasp.4.4
   GGA_COMPAT  = T    GGA compatible to vasp.4.4-vasp.4.6
   LMAXPAW     = -100 max onsite density
   LMAXMIX     =    2 max onsite mixed and CHGCAR
   VOSKOWN=      0    Vosko Wilk Nusair interpolation
   ROPT   =    0.00000   0.00000   0.00000
 Ionic relaxation
   EDIFFG = -.3E-01   stopping-criterion for IOM
   NSW    =      0    number of steps for IOM
   NBLOCK =      1;   KBLOCK =      1    inner block; outer block 
   IBRION =     -1    ionic relax: 0-MD 1-quasi-New 2-CG
   NFREE  =      1    steps in history (QN), initial steepest desc. (CG)
   ISIF   =      2    stress and relaxation
   IWAVPR =     10    prediction:  0-non 1-charg 2-wave 3-comb
   ISYM   =      3    0-nonsym 1-usesym 2-fastsym
   LCORR  =      T    Harris-Foulkes like correction to forces

   POTIM  = 0.5000    time-step for ionic-motion
   TEIN   =    0.0    initial temperature
   TEBEG  =    0.0;   TEEND  =   0.0 temperature during run
   SMASS  =  -3.00    Nose mass-parameter (am)
   estimated Nose-frequenzy (Omega)   =  0.10E-29 period in steps =****** mass=  -0.375E-26a.u.
   SCALEE = 1.0000    scale energy and forces
   NPACO  =    256;   APACO  = 16.0  distance and # of slots for P.C.
   PSTRESS=    0.0 pullay stress

  Mass of Ions in am
   POMASS =  12.01 14.00 55.85
  Ionic Valenz
   ZVAL   =   4.00  5.00  8.00
  Atomic Wigner-Seitz radii
   RWIGS  =  -1.00 -1.00 -1.00
  virtual crystal weights 
   VCA    =   1.00  1.00  1.00
   NELECT =     249.0000    total number of electrons
   NUPDOWN=      -1.0000    fix difference up-down

 DOS related values:
   EMIN   =  10.00;   EMAX   =-10.00  energy-range for DOS
   EFERMI =   0.00
   ISMEAR =     0;   SIGMA  =   0.10  broadening in eV -4-tet -1-fermi 0-gaus

 Electronic relaxation 2 (details)
   IALGO  =     53    algorithm
   LDIAG  =      T    sub-space diagonalisation (order eigenvalues)
   LSUBROT=      F    optimize rotation matrix (better conditioning)
   TURBO    =      0    0=normal 1=particle mesh
   IRESTART =      0    0=no restart 2=restart with 2 vectors
   NREBOOT  =      0    no. of reboots
   NMIN     =      0    reboot dimension
   EREF     =   0.00    reference energy to select bands
   IMIX   =      4    mixing-type and parameters
     AMIX     =   0.40;   BMIX     =  1.00
     AMIX_MAG =   1.60;   BMIX_MAG =  1.00
     AMIN     =   0.10
     WC   =   100.;   INIMIX=   1;  MIXPRE=   1;  MAXMIX= -45

 Intra band minimization:
   WEIMIN = 0.0000     energy-eigenvalue tresh-hold
   EBREAK =  0.16E-06  absolut break condition
   DEPER  =   0.30     relativ break condition  

   TIME   =   0.20     timestep for ELM

  volume/ion in A,a.u.               =      53.85       363.37
  Fermi-wavevector in a.u.,A,eV,Ry     =   0.700607  1.323955  6.678418  0.490850
  Thomas-Fermi vector in A             =   1.784806
 
 Write flags
   LWAVE        =      T    write WAVECAR
   LDOWNSAMPLE  =      F    k-point downsampling of WAVECAR
   LCHARG       =      T    write CHGCAR
   LVTOT        =      F    write LOCPOT, total local potential
   LVHAR        =      T    write LOCPOT, Hartree potential only
   LELF         =      F    write electronic localiz. function (ELF)
   LORBIT       =     11    0 simple, 1 ext, 2 COOP (PROOUT), +10 PAW based schemes


 Dipole corrections
   LMONO  =      F    monopole corrections only (constant potential shift)
   LDIPOL =      T    correct potential (dipole corrections)
   IDIPOL =      3    1-x, 2-y, 3-z, 4-all directions 
   EPSILON=  1.0000000 bulk dielectric constant

 Exchange correlation treatment:
   GGA     =    PE    GGA type
   LEXCH   =     8    internal setting for exchange type
   VOSKOWN=      0    Vosko Wilk Nusair interpolation
   EXXOEP  =     0    0=HF, 1=EXX-LHF (local Hartree Fock) 2=EXX OEP
   LHFCALC =     T    Hartree Fock is set to
   LSYMGRAD=     F    symmetrize gradient (conserves proper symmetry)
   PRECFOCK=normal    Normal, Fast or Accurate (Low or Medium for compatibility)
   LRHFCALC=     F    long range Hartree Fock
   LRSCOR  =     F    long range correlation only (use DFT for short range part)
   LTHOMAS =     F    Thomas Fermi screening in HF
   LMODELHF=     F    short range full HF, long range fraction AEXX
   ENCUT4O =  -1.0   cutoff for four orbital integrals eV
   LMAXFOCK=     4    L truncation for augmentation on plane wave grid
   LMAXFOCKAE=  -1    L truncation for all-electron charge restoration on plane wave grid
   NMAXFOCKAE=   1    number of basis functions for all-electron charge restoration
   LFOCKAEDFT=     F  apply the AE augmentation even for DFT
   NKREDX  =     1    reduce k-point grid by
   NKREDY  =     1    reduce k-point grid by
   NKREDZ  =     1    reduce k-point grid by
   SHIFTRED=     F    shift reduced grid of Gamma
   HFKIDENT=     F    idential grid for each k-point
   ODDONLY =     F    use only odd q-grid points
   EVENONLY=     F    use only even q-grid points
   HFALPHA =   -1.0000 decay constant for conv. correction
   MCALPHA =    0.0000 extent of test-charge in conv. correction in multipole expansion
   AEXX    =    0.2500 exact exchange contribution
   HFSCREEN=    0.2000 screening length (either q_TF or 0.3 A-1)
   HFSCREENC=   0.2000 screening length for correlation (either q_TF or 0.3 A-1)
   HFRCUT  =    0.0000 spherical cutoff for potential kernel
   ALDAX   =    0.7500 LDA exchange part
   AGGAX   =    0.7500 GGA exchange part
   ALDAC   =    1.0000 LDA correlation
   AGGAC   =    1.0000 GGA correlation
   ENCUTFOCK=  -1.0 apply spherical cutoff to Coloumb kernel
   NBANDSGWLOW=     1    first orbital included in HF term
   NBLOCK_FOCK=    64    blocking factor in FOCK_ACC
 Linear response parameters
   LEPSILON=     F    determine dielectric tensor
   LRPA    =     F    only Hartree local field effects (RPA)
   LNABLA  =     F    use nabla operator in PAW spheres
   LVEL    =     F    velocity operator in full k-point grid
   LINTERFAST=   F  fast interpolation
   KINTER  =     0    interpolate to denser k-point grid
   CSHIFT  =0.1000    complex shift for real part using Kramers Kronig
   OMEGAMAX=  -1.0    maximum frequency
   DEG_THRESHOLD= 0.2000000E-02 threshold for treating states as degnerate
   RTIME   =   -0.100 relaxation time in fs
  (WPLASMAI=    0.000 imaginary part of plasma frequency in eV, 0.658/RTIME)
   DFIELD  = 0.0000000 0.0000000 0.0000000 field for delta impulse in time
 
 Orbital magnetization related:
   ORBITALMAG=     F  switch on orbital magnetization
   LCHIMAG   =     F  perturbation theory with respect to B field
   DQ        =  0.001000  dq finite difference perturbation B field
   LLRAUG    =     F  two centre corrections for induced B field



--------------------------------------------------------------------------------------------------------


 Static calculation
 charge density and potential will be updated during run
 spin polarized calculation
 Conjugate gradient for all bands (Freysoldt, et al. PRB 79, 241103 (2009))
 perform sub-space diagonalisation
    before iterative eigenvector-optimisation
 modified Broyden-mixing scheme, WC =      100.0
 initial mixing is a Kerker type mixing with AMIX =  0.4000 and BMIX =      1.0000
 Hartree-type preconditioning will be used
 using additional bands           31
 reciprocal scheme for non local part
 use partial core corrections
 no Harris-corrections to forces 
 use gradient corrections 
 use of overlap-Matrix (Vanderbilt PP)
 Gauss-broadening in eV      SIGMA  =   0.10


--------------------------------------------------------------------------------------------------------


  energy-cutoff  :      500.00
  volume of cell :     3176.88
      direct lattice vectors                 reciprocal lattice vectors
    12.810000000  0.000000000  0.000000000     0.078064012  0.000000000  0.000000000
     0.000000000 12.400000000  0.000000000     0.000000000  0.080645161  0.000000000
     0.000000000  0.000000000 20.000000000     0.000000000  0.000000000  0.050000000

  length of vectors
    12.810000000 12.400000000 20.000000000     0.078064012  0.080645161  0.050000000


 
 old parameters found on file WAVECAR:
  energy-cutoff  :      500.00
  volume of cell :     3176.88
      direct lattice vectors                 reciprocal lattice vectors
    12.810000000  0.000000000  0.000000000     0.078064012  0.000000000  0.000000000
     0.000000000 12.400000000  0.000000000     0.000000000  0.080645161  0.000000000
     0.000000000  0.000000000 20.000000000     0.000000000  0.000000000  0.050000000

  length of vectors

 
 k-points in units of 2pi/SCALE and weight: KPOINTS created by Atomic Simulation Env
   0.01951600  0.02016129  0.00000000       0.500
  -0.01951600  0.02016129  0.00000000       0.500
 
 k-points in reciprocal lattice and weights: KPOINTS created by Atomic Simulation Env
   0.25000000  0.25000000  0.00000000       0.500
  -0.25000000  0.25000000  0.00000000       0.500
 
 position of ions in fractional coordinates (direct lattice) 
   0.22243307  0.00236940  0.49958770
   0.05740660  0.10228433  0.49879309
   0.11120745  0.00159646  0.49871343
   0.27814842  0.10332214  0.50172623
   0.22484504  0.20518757  0.50413532
   0.05701076  0.30286452  0.49982020
   0.11306735  0.20332015  0.50107041
   0.28160779  0.30635698  0.50906882
   0.22280468  0.40740354  0.50915718
   0.05420207  0.50337098  0.50020712
   0.11135369  0.40377756  0.50217712
   0.22183110  0.60272848  0.50374708
   0.05344904  0.70172882  0.49701094
   0.11014985  0.60319410  0.49941982
   0.28150237  0.70175248  0.50010738
   0.22314530  0.80065372  0.49793842
   0.05566392  0.90114540  0.49721267
   0.11083295  0.80068449  0.49721540
   0.27708345  0.90244831  0.49844707
   0.55514520  0.00129189  0.49706419
   0.38887295  0.10149462  0.50044992
   0.44425392  0.00188932  0.49833081
   0.61234815  0.09924643  0.49669026
   0.55713532  0.19746415  0.49938774
   0.39437258  0.30105583  0.50958075
   0.44605085  0.19995898  0.50227233
   0.61491866  0.29468266  0.49928298
   0.56080317  0.39087741  0.50641173
   0.55431266  0.80417051  0.49767335
   0.38834568  0.90238740  0.49843035
   0.44264813  0.80316118  0.49858950
   0.61014931  0.90230694  0.49663000
   0.88994899  0.00077649  0.49579496
   0.72362345  0.09987292  0.49529720
   0.77843232  0.00019386  0.49525642
   0.94618543  0.10101673  0.49663588
   0.89113480  0.20090087  0.49604925
   0.72520678  0.29802709  0.49646616
   0.78019300  0.19922715  0.49525266
   0.94531558  0.30184472  0.49737070
   0.88853323  0.40152371  0.49773752
   0.71667823  0.49715853  0.50012995
   0.77706785  0.39957804  0.49792094
   0.94216933  0.50248892  0.49856635
   0.88340648  0.60118663  0.49782074
   0.71438038  0.70160128  0.49795231
   0.76962574  0.59995750  0.49854130
   0.94106558  0.70035615  0.49681189
   0.88635066  0.80034183  0.49635455
   0.72149406  0.90128521  0.49594925
   0.77444552  0.80018875  0.49667460
   0.94382328  0.90026886  0.49629457
   0.27251173  0.50592980  0.51523321
   0.45554110  0.39224689  0.51768178
   0.60878232  0.49001903  0.50424011
   0.39188885  0.70345845  0.50043703
   0.60614521  0.70631453  0.49800420
   0.40111175  0.51330349  0.56751508
   0.50319687  0.59632585  0.50349208
 
 position of ions in cartesian coordinates  (Angst):
   2.84936764  0.02938061  9.99175403
   0.73537856  1.26832568  9.97586173
   1.42456741  0.01979606  9.97426855
   3.56308125  1.28119450 10.03452460
   2.88026493  2.54432593 10.08270631
   0.73030784  3.75552001  9.99640408
   1.44839273  2.52116983 10.02140814
   3.60739575  3.79882655 10.18137633
   2.85412794  5.05180389 10.18314359
   0.69432847  6.24180013 10.00414242
   1.42644083  5.00684171 10.04354232
   2.84165645  7.47383318 10.07494161
   0.68468217  8.70143737  9.94021877
   1.41101956  7.47960680  9.98839632
   3.60604533  8.70173073 10.00214769
   2.85849129  9.92810610  9.95876840
   0.71305479 11.17420291  9.94425333
   1.41977015  9.92848761  9.94430791
   3.54943897 11.19035899  9.96894134
   7.11141004  0.01601942  9.94128378
   4.98146243  1.25853334 10.00899842
   5.69089271  0.02342751  9.96661630
   7.84417976  1.23065570  9.93380524
   7.13690347  2.44855543  9.98775481
   5.05191278  3.73309234 10.19161507
   5.71391139  2.47949140 10.04544661
   7.87710804  3.65406503  9.98565953
   7.18388864  4.84687987 10.12823466
   7.10074512  9.97171431  9.95346704
   4.97470821 11.18960378  9.96860700
   5.67032258  9.95919868  9.97178992
   7.81601261 11.18860604  9.93259996
  11.40024662  0.00962845  9.91589922
   9.26961633  1.23842427  9.90594404
   9.97171797  0.00240392  9.90512846
  12.12063534  1.25260739  9.93271761
  11.41543680  2.49117077  9.92098506
   9.28989889  3.69553586  9.92932329
   9.99427231  2.47041670  9.90505315
  12.10949262  3.74287457  9.94741400
  11.38211073  4.97889398  9.95475045
   9.18064811  6.16476571 10.00259907
   9.95423919  4.95476770  9.95841883
  12.06918910  6.23086262  9.97132709
  11.31643696  7.45471415  9.95641488
   9.15121269  8.69985589  9.95904616
   9.85890577  7.43947296  9.97082607
  12.05505006  8.68441624  9.93623783
  11.35415197  9.92423864  9.92709100
   9.24233890 11.17593666  9.91898492
   9.92064710  9.92234047  9.93349209
  12.09037627 11.16333383  9.92589141
   3.49087524  6.27352956 10.30466412
   5.83548154  4.86386142 10.35363552
   7.79850158  6.07623603 10.08480217
   5.02009616  8.72288475 10.00874052
   7.76472013  8.75830019  9.96008402
   5.13824146  6.36496333 11.35030170
   6.44595194  7.39444050 10.06984150
 


--------------------------------------------------------------------------------------------------------


 k-point  1 :   0.2500 0.2500 0.0000  plane waves:   80679
 k-point  2 :  -0.2500 0.2500 0.0000  plane waves:   80679

 maximum and minimum number of plane-waves per node :      2047     1989

 maximum number of plane-waves:     80679
 maximum index in each direction: 
   IXMAX=   23   IYMAX=   22   IZMAX=   36
   IXMIN=  -23   IYMIN=  -22   IZMIN=  -36


 parallel 3D FFT for wavefunctions:
    minimum data exchange during FFTs selected (reduces bandwidth)
 parallel 3D FFT for charge:
    minimum data exchange during FFTs selected (reduces bandwidth)


 FFT grid for exact exchange (Hartree Fock) 
  NGX = 72; NGY = 70; NGZ =112

 
 Radii for the augmentation spheres in the non-local exchange
 for species   1 augmentation radius   0.874 (default was   0.699)
       energy cutoff for augmentation   2000.0
 for species   2 augmentation radius   0.886 (default was   0.709)
       energy cutoff for augmentation   2000.0
 for species   3 augmentation radius   1.263 (default was   1.010)
       energy cutoff for augmentation   2000.0

 real space projection operators:
  total allocation   :       2570.66 KBytes
  max/ min on nodes  :         95.54         42.96

 Maximum index for augmentation-charges in exchange          115
  SETUP_FOCK is finished

 total amount of memory used by VASP MPI-rank0   136100. kBytes
=======================================================================

   base      :      30000. kBytes
   nonl-proj :       3715. kBytes
   fftplans  :      11188. kBytes
   grid      :      27138. kBytes
   one-center:         62. kBytes
   HF        :         23. kBytes
   nonlr-proj:       1646. kBytes
   wavefun   :      62328. kBytes
 
     INWAV:  cpu time    4.4784: real time    4.4910
 Broyden mixing: mesh for mixing (old mesh)
   NGX = 47   NGY = 45   NGZ = 73
  (NGX  =192   NGY  =180   NGZ  =300)
  gives a total of 154395 points

 charge density for first step will be calculated from the start-wavefunctions


--------------------------------------------------------------------------------------------------------


 Maximum index for augmentation-charges          669 (set IRDMAX)


--------------------------------------------------------------------------------------------------------


 initial charge from wavefunction
 First call to EWALD:  gamma=   0.121
 Maximum number of real-space cells 3x 3x 2
 Maximum number of reciprocal cells 2x 2x 4

    FEWALD:  cpu time    0.0027: real time    0.0027


--------------------------------------- Iteration      1(   1)  ---------------------------------------


    POTLOK:  cpu time    0.8507: real time    0.8556
    SETDIJ:  cpu time    1.0177: real time    1.0202
    TRIAL :  cpu time  167.4349: real time  167.9176
    CORREC:  cpu time    0.0015: real time    0.0015
    CHARGE:  cpu time    0.7521: real time    0.7540
    --------------------------------------------
      LOOP:  cpu time  170.0772: real time  170.5716

 eigenvalue-minimisations  :     0
 total energy-change (2. order) :-0.6191115E+03  (-0.5027456E+00)
 number of electron     249.0000012 magnetization       4.9491082
 augmentation part       14.4341243 magnetization       3.4141169

 DIPCOR: dipole corrections for dipol
 direction  3 min pos     1,
 dipolmoment           0.000000      0.000000     -0.199168 electrons x Angstroem
 Tr[quadrupol]     -6893.575107

 energy correction for charged system         0.000000 eV
 dipol+quadrupol energy correction           -0.001134 eV
 added-field ion interaction          0.129128 eV  (added to PSCEN)


 Free energy of the ion-electron system (eV)
  ---------------------------------------------------
  alpha Z        PSCENC =       105.81690743
  Ewald energy   TEWEN  =     40676.98678303
  -Hartree energ DENC   =    -49380.12097923
  -exchange      EXHF   =       565.39423405
  -V(xc)+E(xc)   XCENC  =       632.63163235
  PAW double counting   =     26953.18917647   -27000.40649902
  entropy T*S    EENTRO =        -0.01974742
  eigenvalues    EBANDS =     -3219.49536709
  atomic energy  EATOM  =     10046.91700171
  ---------------------------------------------------
  free energy    TOTEN  =      -619.11147433 eV

  energy without entropy =     -619.09172692  energy(sigma->0) =     -619.10160063
  exchange ACFDT corr.  =        -0.02115045  see jH, gK, PRB 81, 115126


--------------------------------------------------------------------------------------------------------




--------------------------------------- Iteration      1(   2)  ---------------------------------------


    POTLOK:  cpu time    0.8658: real time    0.8680
    SETDIJ:  cpu time    1.0138: real time    1.0162
    TRIAL :  cpu time  166.6900: real time  167.1312
    CORREC:  cpu time    0.0009: real time    0.0009
    CHARGE:  cpu time    0.7489: real time    0.7508
    --------------------------------------------
      LOOP:  cpu time  169.3211: real time  169.7719

 eigenvalue-minimisations  :     0
 total energy-change (2. order) :-0.4173468E+00  (-0.4699423E+00)
 number of electron     249.0000012 magnetization       4.9743289
 augmentation part       14.4180442 magnetization       3.5106746

 DIPCOR: dipole corrections for dipol
 direction  3 min pos     1,
 dipolmoment           0.000000      0.000000     -0.255254 electrons x Angstroem
 Tr[quadrupol]     -6893.493580

 energy correction for charged system         0.000000 eV
 dipol+quadrupol energy correction           -0.001863 eV
 added-field ion interaction          0.165491 eV  (added to PSCEN)


 Free energy of the ion-electron system (eV)
  ---------------------------------------------------
  alpha Z        PSCENC =       105.85254160
  Ewald energy   TEWEN  =     40676.98678303
  -Hartree energ DENC   =    -49366.21466409
  -exchange      EXHF   =       565.33668447
  -V(xc)+E(xc)   XCENC  =       632.29111237
  PAW double counting   =     27087.00150600   -27133.72423882
  entropy T*S    EENTRO =        -0.01481879
  eigenvalues    EBANDS =     -3233.95580003
  atomic energy  EATOM  =     10046.91700171
  ---------------------------------------------------
  free energy    TOTEN  =      -619.52882116 eV

  energy without entropy =     -619.51400237  energy(sigma->0) =     -619.52141176
  exchange ACFDT corr.  =        -0.01743753  see jH, gK, PRB 81, 115126


--------------------------------------------------------------------------------------------------------




--------------------------------------- Iteration      1(   3)  ---------------------------------------


    POTLOK:  cpu time    0.8691: real time    0.8752
    SETDIJ:  cpu time    1.0232: real time    1.0256
    TRIAL :  cpu time  165.8836: real time  166.3314
    CORREC:  cpu time    0.0013: real time    0.0013
    CHARGE:  cpu time    0.7470: real time    0.7488
    --------------------------------------------
      LOOP:  cpu time  168.5254: real time  168.9870

 eigenvalue-minimisations  :     0
 total energy-change (2. order) :-0.3631591E+00  (-0.2850927E+00)
 number of electron     249.0000012 magnetization       4.9919121
 augmentation part       14.4162362 magnetization       3.5899020

 DIPCOR: dipole corrections for dipol
 direction  3 min pos     1,
 dipolmoment           0.000000      0.000000     -0.244708 electrons x Angstroem
 Tr[quadrupol]     -6893.354385

 energy correction for charged system         0.000000 eV
 dipol+quadrupol energy correction           -0.001712 eV
 added-field ion interaction          0.158654 eV  (added to PSCEN)


 Free energy of the ion-electron system (eV)
  ---------------------------------------------------
  alpha Z        PSCENC =       105.84585476
  Ewald energy   TEWEN  =     40676.98678303
  -Hartree energ DENC   =    -49352.10949795
  -exchange      EXHF   =       565.36175750
  -V(xc)+E(xc)   XCENC  =       631.97061708
  PAW double counting   =     27263.58029380   -27310.14887366
  entropy T*S    EENTRO =        -0.01130393
  eigenvalues    EBANDS =     -3248.28109771
  atomic energy  EATOM  =     10046.91700171
  ---------------------------------------------------
  free energy    TOTEN  =      -619.89198024 eV

  energy without entropy =     -619.88067630  energy(sigma->0) =     -619.88632827
  exchange ACFDT corr.  =        -0.00938949  see jH, gK, PRB 81, 115126


--------------------------------------------------------------------------------------------------------




--------------------------------------- Iteration      1(   4)  ---------------------------------------


    POTLOK:  cpu time    0.8744: real time    0.8778
    SETDIJ:  cpu time    1.0223: real time    1.0247
    TRIAL :  cpu time  166.1127: real time  166.5653
    CORREC:  cpu time    0.0015: real time    0.0015
    CHARGE:  cpu time    0.7450: real time    0.7482
    --------------------------------------------
      LOOP:  cpu time  168.7573: real time  169.2221

 eigenvalue-minimisations  :     0
 total energy-change (2. order) :-0.2211238E+00  (-0.1727492E+00)
 number of electron     249.0000012 magnetization       5.0022029
 augmentation part       14.4204775 magnetization       3.6419354

 DIPCOR: dipole corrections for dipol
 direction  3 min pos     1,
 dipolmoment           0.000000      0.000000     -0.265611 electrons x Angstroem
 Tr[quadrupol]     -6893.349358

 energy correction for charged system         0.000000 eV
 dipol+quadrupol energy correction           -0.002017 eV
 added-field ion interaction          0.172206 eV  (added to PSCEN)


 Free energy of the ion-electron system (eV)
  ---------------------------------------------------
  alpha Z        PSCENC =       105.85910250
  Ewald energy   TEWEN  =     40676.98678303
  -Hartree energ DENC   =    -49346.91142954
  -exchange      EXHF   =       565.57874689
  -V(xc)+E(xc)   XCENC  =       631.87129123
  PAW double counting   =     27415.99892226   -27462.62151454
  entropy T*S    EENTRO =        -0.00900311
  eigenvalues    EBANDS =     -3253.78070360
  atomic energy  EATOM  =     10046.91700171
  ---------------------------------------------------
  free energy    TOTEN  =      -620.11310399 eV

  energy without entropy =     -620.10410088  energy(sigma->0) =     -620.10860243
  exchange ACFDT corr.  =        -0.00740401  see jH, gK, PRB 81, 115126


--------------------------------------------------------------------------------------------------------




--------------------------------------- Iteration      1(   5)  ---------------------------------------


    POTLOK:  cpu time    0.8761: real time    0.8783
    SETDIJ:  cpu time    1.0184: real time    1.0209
    TRIAL :  cpu time  166.4178: real time  166.8640
    CORREC:  cpu time    0.0010: real time    0.0010
    CHARGE:  cpu time    0.7465: real time    0.7483
    --------------------------------------------
      LOOP:  cpu time  169.0611: real time  169.5170

 eigenvalue-minimisations  :     0
 total energy-change (2. order) :-0.1398564E+00  (-0.1161337E+00)
 number of electron     249.0000012 magnetization       5.0073067
 augmentation part       14.4257134 magnetization       3.6725787

 DIPCOR: dipole corrections for dipol
 direction  3 min pos     1,
 dipolmoment           0.000000      0.000000     -0.282828 electrons x Angstroem
 Tr[quadrupol]     -6893.414171

 energy correction for charged system         0.000000 eV
 dipol+quadrupol energy correction           -0.002287 eV
 added-field ion interaction          0.183369 eV  (added to PSCEN)


 Free energy of the ion-electron system (eV)
  ---------------------------------------------------
  alpha Z        PSCENC =       105.86999484
  Ewald energy   TEWEN  =     40676.98678303
  -Hartree energ DENC   =    -49348.22507913
  -exchange      EXHF   =       565.90733885
  -V(xc)+E(xc)   XCENC  =       631.94732220
  PAW double counting   =     27523.55296901   -27570.26125794
  entropy T*S    EENTRO =        -0.00739879
  eigenvalues    EBANDS =     -3252.93902984
  atomic energy  EATOM  =     10046.91700171
  ---------------------------------------------------
  free energy    TOTEN  =      -620.25296038 eV

  energy without entropy =     -620.24556159  energy(sigma->0) =     -620.24926098
  exchange ACFDT corr.  =        -0.00534384  see jH, gK, PRB 81, 115126


--------------------------------------------------------------------------------------------------------




--------------------------------------- Iteration      1(   6)  ---------------------------------------


    POTLOK:  cpu time    0.8727: real time    0.8761
    SETDIJ:  cpu time    1.0157: real time    1.0187
    TRIAL :  cpu time  166.1454: real time  166.5777
    CORREC:  cpu time    0.0015: real time    0.0015
    CHARGE:  cpu time    0.7451: real time    0.7469
    --------------------------------------------
      LOOP:  cpu time  168.7812: real time  169.2260

 eigenvalue-minimisations  :     0
 total energy-change (2. order) :-0.9744436E-01  (-0.8037336E-01)
 number of electron     249.0000012 magnetization       5.0093800
 augmentation part       14.4308082 magnetization       3.6908118

 DIPCOR: dipole corrections for dipol
 direction  3 min pos     1,
 dipolmoment           0.000000      0.000000     -0.284904 electrons x Angstroem
 Tr[quadrupol]     -6893.482048

 energy correction for charged system         0.000000 eV
 dipol+quadrupol energy correction           -0.002321 eV
 added-field ion interaction          0.184715 eV  (added to PSCEN)


 Free energy of the ion-electron system (eV)
  ---------------------------------------------------
  alpha Z        PSCENC =       105.87130718
  Ewald energy   TEWEN  =     40676.98678303
  -Hartree energ DENC   =    -49351.73515516
  -exchange      EXHF   =       566.23643435
  -V(xc)+E(xc)   XCENC  =       632.08605510
  PAW double counting   =     27590.57658480   -27637.34145521
  entropy T*S    EENTRO =        -0.00618793
  eigenvalues    EBANDS =     -3249.94056173
  atomic energy  EATOM  =     10046.91700171
  ---------------------------------------------------
  free energy    TOTEN  =      -620.35040473 eV

  energy without entropy =     -620.34421681  energy(sigma->0) =     -620.34731077
  exchange ACFDT corr.  =        -0.00407450  see jH, gK, PRB 81, 115126


--------------------------------------------------------------------------------------------------------




--------------------------------------- Iteration      1(   7)  ---------------------------------------


    POTLOK:  cpu time    0.8710: real time    0.8732
    SETDIJ:  cpu time    1.0143: real time    1.0179
    TRIAL :  cpu time  166.9540: real time  167.4311
    CORREC:  cpu time    0.0014: real time    0.0014
    CHARGE:  cpu time    0.7622: real time    0.7640
    --------------------------------------------
      LOOP:  cpu time  169.6045: real time  170.0928

 eigenvalue-minimisations  :     0
 total energy-change (2. order) :-0.6897437E-01  (-0.5716143E-01)
 number of electron     249.0000012 magnetization       5.0097213
 augmentation part       14.4359697 magnetization       3.7031251

 DIPCOR: dipole corrections for dipol
 direction  3 min pos     1,
 dipolmoment           0.000000      0.000000     -0.286193 electrons x Angstroem
 Tr[quadrupol]     -6893.536756

 energy correction for charged system         0.000000 eV
 dipol+quadrupol energy correction           -0.002342 eV
 added-field ion interaction          0.185550 eV  (added to PSCEN)


 Free energy of the ion-electron system (eV)
  ---------------------------------------------------
  alpha Z        PSCENC =       105.87212179
  Ewald energy   TEWEN  =     40676.98678303
  -Hartree energ DENC   =    -49355.16131351
  -exchange      EXHF   =       566.50537210
  -V(xc)+E(xc)   XCENC  =       632.21564469
  PAW double counting   =     27628.67263047   -27675.48042746
  entropy T*S    EENTRO =        -0.00522951
  eigenvalues    EBANDS =     -3246.94100400
  atomic energy  EATOM  =     10046.91700171
  ---------------------------------------------------
  free energy    TOTEN  =      -620.41937910 eV

  energy without entropy =     -620.41414959  energy(sigma->0) =     -620.41676435
  exchange ACFDT corr.  =        -0.00320853  see jH, gK, PRB 81, 115126


--------------------------------------------------------------------------------------------------------




--------------------------------------- Iteration      1(   8)  ---------------------------------------


    POTLOK:  cpu time    0.9414: real time    0.9455
    SETDIJ:  cpu time    1.0135: real time    1.0173
    TRIAL :  cpu time  166.1455: real time  166.6255
    CORREC:  cpu time    0.0012: real time    0.0012
    CHARGE:  cpu time    0.7435: real time    0.7452
    --------------------------------------------
      LOOP:  cpu time  168.8466: real time  169.3402

 eigenvalue-minimisations  :     0
 total energy-change (2. order) :-0.5012992E-01  (-0.4182445E-01)
 number of electron     249.0000012 magnetization       5.0092107
 augmentation part       14.4408608 magnetization       3.7131362

 DIPCOR: dipole corrections for dipol
 direction  3 min pos     1,
 dipolmoment           0.000000      0.000000     -0.289208 electrons x Angstroem
 Tr[quadrupol]     -6893.571827

 energy correction for charged system         0.000000 eV
 dipol+quadrupol energy correction           -0.002391 eV
 added-field ion interaction          0.187505 eV  (added to PSCEN)


 Free energy of the ion-electron system (eV)
  ---------------------------------------------------
  alpha Z        PSCENC =       105.87402678
  Ewald energy   TEWEN  =     40676.98678303
  -Hartree energ DENC   =    -49357.54779503
  -exchange      EXHF   =       566.70005772
  -V(xc)+E(xc)   XCENC  =       632.30889295
  PAW double counting   =     27648.47957760   -27695.33980128
  entropy T*S    EENTRO =        -0.00446902
  eigenvalues    EBANDS =     -3244.84302300
  atomic energy  EATOM  =     10046.91700171
  ---------------------------------------------------
  free energy    TOTEN  =      -620.46950902 eV

  energy without entropy =     -620.46504000  energy(sigma->0) =     -620.46727451
  exchange ACFDT corr.  =        -0.00243982  see jH, gK, PRB 81, 115126


--------------------------------------------------------------------------------------------------------




--------------------------------------- Iteration      1(   9)  ---------------------------------------


    POTLOK:  cpu time    0.8669: real time    0.8690
    SETDIJ:  cpu time    1.0034: real time    1.0070
    TRIAL :  cpu time  165.6792: real time  166.7984
    CORREC:  cpu time    0.0017: real time    0.0017
    CHARGE:  cpu time    0.7477: real time    0.7494
    --------------------------------------------
      LOOP:  cpu time  168.3001: real time  169.4310

 eigenvalue-minimisations  :     0
 total energy-change (2. order) :-0.3739369E-01  (-0.3163125E-01)
 number of electron     249.0000012 magnetization       5.0084400
 augmentation part       14.4446614 magnetization       3.7221574

 DIPCOR: dipole corrections for dipol
 direction  3 min pos     1,
 dipolmoment           0.000000      0.000000     -0.290034 electrons x Angstroem
 Tr[quadrupol]     -6893.586814

 energy correction for charged system         0.000000 eV
 dipol+quadrupol energy correction           -0.002405 eV
 added-field ion interaction          0.188040 eV  (added to PSCEN)


 Free energy of the ion-electron system (eV)
  ---------------------------------------------------
  alpha Z        PSCENC =       105.87454853
  Ewald energy   TEWEN  =     40676.98678303
  -Hartree energ DENC   =    -49358.76488168
  -exchange      EXHF   =       566.83335655
  -V(xc)+E(xc)   XCENC  =       632.36641036
  PAW double counting   =     27657.80505670   -27704.72759646
  entropy T*S    EENTRO =        -0.00388575
  eigenvalues    EBANDS =     -3243.79311244
  atomic energy  EATOM  =     10046.91700171
  ---------------------------------------------------
  free energy    TOTEN  =      -620.50690272 eV

  energy without entropy =     -620.50301697  energy(sigma->0) =     -620.50495984
  exchange ACFDT corr.  =        -0.00201361  see jH, gK, PRB 81, 115126


--------------------------------------------------------------------------------------------------------




--------------------------------------- Iteration      1(  10)  ---------------------------------------


    POTLOK:  cpu time    0.8649: real time    0.8671
    SETDIJ:  cpu time    1.0042: real time    1.0065
    TRIAL :  cpu time  165.6567: real time  166.1231
    CORREC:  cpu time    0.0012: real time    0.0012
    CHARGE:  cpu time    0.7427: real time    0.7445
    --------------------------------------------
      LOOP:  cpu time  168.2713: real time  168.7476

 eigenvalue-minimisations  :     0
 total energy-change (2. order) :-0.2870541E-01  (-0.2454156E-01)
 number of electron     249.0000012 magnetization       5.0076887
 augmentation part       14.4472188 magnetization       3.7303579

 DIPCOR: dipole corrections for dipol
 direction  3 min pos     1,
 dipolmoment           0.000000      0.000000     -0.288759 electrons x Angstroem
 Tr[quadrupol]     -6893.589619

 energy correction for charged system         0.000000 eV
 dipol+quadrupol energy correction           -0.002384 eV
 added-field ion interaction          0.187214 eV  (added to PSCEN)


 Free energy of the ion-electron system (eV)
  ---------------------------------------------------
  alpha Z        PSCENC =       105.87374283
  Ewald energy   TEWEN  =     40676.98678303
  -Hartree energ DENC   =    -49359.17859257
  -exchange      EXHF   =       566.92621515
  -V(xc)+E(xc)   XCENC  =       632.39983513
  PAW double counting   =     27661.55686113   -27708.53573540
  entropy T*S    EENTRO =        -0.00345244
  eigenvalues    EBANDS =     -3243.47783340
  atomic energy  EATOM  =     10046.91700171
  ---------------------------------------------------
  free energy    TOTEN  =      -620.53560813 eV

  energy without entropy =     -620.53215569  energy(sigma->0) =     -620.53388191
  exchange ACFDT corr.  =        -0.00169867  see jH, gK, PRB 81, 115126


--------------------------------------------------------------------------------------------------------




--------------------------------------- Iteration      1(  11)  ---------------------------------------


    POTLOK:  cpu time    0.8610: real time    0.8641
    SETDIJ:  cpu time    1.0130: real time    1.0154
    TRIAL :  cpu time  165.5177: real time  165.9777
    CORREC:  cpu time    0.0013: real time    0.0013
    CHARGE:  cpu time    0.7442: real time    0.7460
    --------------------------------------------
      LOOP:  cpu time  168.1383: real time  168.6094

 eigenvalue-minimisations  :     0
 total energy-change (2. order) :-0.2253242E-01  (-0.1948133E-01)
 number of electron     249.0000012 magnetization       5.0070194
 augmentation part       14.4490604 magnetization       3.7375490

 DIPCOR: dipole corrections for dipol
 direction  3 min pos     1,
 dipolmoment           0.000000      0.000000     -0.287827 electrons x Angstroem
 Tr[quadrupol]     -6893.589314

 energy correction for charged system         0.000000 eV
 dipol+quadrupol energy correction           -0.002369 eV
 added-field ion interaction          0.186610 eV  (added to PSCEN)


 Free energy of the ion-electron system (eV)
  ---------------------------------------------------
  alpha Z        PSCENC =       105.87315432
  Ewald energy   TEWEN  =     40676.98678303
  -Hartree energ DENC   =    -49359.25474777
  -exchange      EXHF   =       566.99636233
  -V(xc)+E(xc)   XCENC  =       632.42111528
  PAW double counting   =     27662.64964635   -27709.67099046
  entropy T*S    EENTRO =        -0.00312990
  eigenvalues    EBANDS =     -3243.47301290
  atomic energy  EATOM  =     10046.91700171
  ---------------------------------------------------
  free energy    TOTEN  =      -620.55814055 eV

  energy without entropy =     -620.55501065  energy(sigma->0) =     -620.55657560
  exchange ACFDT corr.  =        -0.00147133  see jH, gK, PRB 81, 115126


--------------------------------------------------------------------------------------------------------




--------------------------------------- Iteration      1(  12)  ---------------------------------------


    POTLOK:  cpu time    0.8656: real time    0.8677
    SETDIJ:  cpu time    1.0118: real time    1.0142
    TRIAL :  cpu time  165.4556: real time  165.8914
    CORREC:  cpu time    0.0014: real time    0.0014
    CHARGE:  cpu time    0.7426: real time    0.7444
    --------------------------------------------
      LOOP:  cpu time  168.0784: real time  168.5244

 eigenvalue-minimisations  :     0
 total energy-change (2. order) :-0.1806966E-01  (-0.1578436E-01)
 number of electron     249.0000012 magnetization       5.0064142
 augmentation part       14.4507583 magnetization       3.7435756

 DIPCOR: dipole corrections for dipol
 direction  3 min pos     1,
 dipolmoment           0.000000      0.000000     -0.288010 electrons x Angstroem
 Tr[quadrupol]     -6893.589900

 energy correction for charged system         0.000000 eV
 dipol+quadrupol energy correction           -0.002372 eV
 added-field ion interaction          0.186729 eV  (added to PSCEN)


 Free energy of the ion-electron system (eV)
  ---------------------------------------------------
  alpha Z        PSCENC =       105.87327013
  Ewald energy   TEWEN  =     40676.98678303
  -Hartree energ DENC   =    -49359.27675144
  -exchange      EXHF   =       567.05429190
  -V(xc)+E(xc)   XCENC  =       632.43749730
  PAW double counting   =     27662.83644253   -27709.89014558
  entropy T*S    EENTRO =        -0.00288118
  eigenvalues    EBANDS =     -3243.51146990
  atomic energy  EATOM  =     10046.91700171
  ---------------------------------------------------
  free energy    TOTEN  =      -620.57621020 eV

  energy without entropy =     -620.57332903  energy(sigma->0) =     -620.57476962
  exchange ACFDT corr.  =        -0.00130574  see jH, gK, PRB 81, 115126


--------------------------------------------------------------------------------------------------------




--------------------------------------- Iteration      1(  13)  ---------------------------------------


    POTLOK:  cpu time    0.8614: real time    0.8641
    SETDIJ:  cpu time    1.0122: real time    1.0145
    TRIAL :  cpu time  165.6974: real time  166.1549
    CORREC:  cpu time    0.0012: real time    0.0012
    CHARGE:  cpu time    0.7447: real time    0.7465
    --------------------------------------------
      LOOP:  cpu time  168.3182: real time  168.7862

 eigenvalue-minimisations  :     0
 total energy-change (2. order) :-0.1476742E-01  (-0.1302648E-01)
 number of electron     249.0000012 magnetization       5.0058560
 augmentation part       14.4525016 magnetization       3.7484380

 DIPCOR: dipole corrections for dipol
 direction  3 min pos     1,
 dipolmoment           0.000000      0.000000     -0.288320 electrons x Angstroem
 Tr[quadrupol]     -6893.591175

 energy correction for charged system         0.000000 eV
 dipol+quadrupol energy correction           -0.002377 eV
 added-field ion interaction          0.186930 eV  (added to PSCEN)


 Free energy of the ion-electron system (eV)
  ---------------------------------------------------
  alpha Z        PSCENC =       105.87346593
  Ewald energy   TEWEN  =     40676.98678303
  -Hartree energ DENC   =    -49359.33168606
  -exchange      EXHF   =       567.10470556
  -V(xc)+E(xc)   XCENC  =       632.45174013
  PAW double counting   =     27663.12315184   -27710.20595829
  entropy T*S    EENTRO =        -0.00268185
  eigenvalues    EBANDS =     -3243.50730030
  atomic energy  EATOM  =     10046.91700171
  ---------------------------------------------------
  free energy    TOTEN  =      -620.59097762 eV

  energy without entropy =     -620.58829577  energy(sigma->0) =     -620.58963670
  exchange ACFDT corr.  =        -0.00118023  see jH, gK, PRB 81, 115126


--------------------------------------------------------------------------------------------------------




--------------------------------------- Iteration      1(  14)  ---------------------------------------


    POTLOK:  cpu time    0.8595: real time    0.8641
    SETDIJ:  cpu time    1.0131: real time    1.0159
    TRIAL :  cpu time  165.9267: real time  166.3718
    CORREC:  cpu time    0.0013: real time    0.0013
    CHARGE:  cpu time    0.7456: real time    0.7474
    --------------------------------------------
      LOOP:  cpu time  168.5476: real time  169.0051

 eigenvalue-minimisations  :     0
 total energy-change (2. order) :-0.1227988E-01  (-0.1093623E-01)
 number of electron     249.0000012 magnetization       5.0053454
 augmentation part       14.4541502 magnetization       3.7522400

 DIPCOR: dipole corrections for dipol
 direction  3 min pos     1,
 dipolmoment           0.000000      0.000000     -0.287995 electrons x Angstroem
 Tr[quadrupol]     -6893.592200

 energy correction for charged system         0.000000 eV
 dipol+quadrupol energy correction           -0.002371 eV
 added-field ion interaction          0.186719 eV  (added to PSCEN)


 Free energy of the ion-electron system (eV)
  ---------------------------------------------------
  alpha Z        PSCENC =       105.87326045
  Ewald energy   TEWEN  =     40676.98678303
  -Hartree energ DENC   =    -49359.41660795
  -exchange      EXHF   =       567.14947646
  -V(xc)+E(xc)   XCENC  =       632.46434222
  PAW double counting   =     27663.96880277   -27711.08010234
  entropy T*S    EENTRO =        -0.00251934
  eigenvalues    EBANDS =     -3243.46353200
  atomic energy  EATOM  =     10046.91700171
  ---------------------------------------------------
  free energy    TOTEN  =      -620.60325751 eV

  energy without entropy =     -620.60073816  energy(sigma->0) =     -620.60199783
  exchange ACFDT corr.  =        -0.00108108  see jH, gK, PRB 81, 115126


--------------------------------------------------------------------------------------------------------




--------------------------------------- Iteration      1(  15)  ---------------------------------------


    POTLOK:  cpu time    0.8571: real time    0.8595
    SETDIJ:  cpu time    1.0129: real time    1.0153
    TRIAL :  cpu time  165.9995: real time  166.4329
    CORREC:  cpu time    0.0013: real time    0.0013
    CHARGE:  cpu time    0.7424: real time    0.7456
    --------------------------------------------
      LOOP:  cpu time  168.6144: real time  169.0592

 eigenvalue-minimisations  :     0
 total energy-change (2. order) :-0.1037408E-01  (-0.9322107E-02)
 number of electron     249.0000012 magnetization       5.0048864
 augmentation part       14.4555482 magnetization       3.7551161

 DIPCOR: dipole corrections for dipol
 direction  3 min pos     1,
 dipolmoment           0.000000      0.000000     -0.287308 electrons x Angstroem
 Tr[quadrupol]     -6893.592926

 energy correction for charged system         0.000000 eV
 dipol+quadrupol energy correction           -0.002360 eV
 added-field ion interaction          0.186273 eV  (added to PSCEN)


 Free energy of the ion-electron system (eV)
  ---------------------------------------------------
  alpha Z        PSCENC =       105.87282637
  Ewald energy   TEWEN  =     40676.98678303
  -Hartree energ DENC   =    -49359.51567641
  -exchange      EXHF   =       567.18955391
  -V(xc)+E(xc)   XCENC  =       632.47525732
  PAW double counting   =     27665.42639904   -27712.56366172
  entropy T*S    EENTRO =        -0.00238681
  eigenvalues    EBANDS =     -3243.39959548
  atomic energy  EATOM  =     10046.91700171
  ---------------------------------------------------
  free energy    TOTEN  =      -620.61363158 eV

  energy without entropy =     -620.61124477  energy(sigma->0) =     -620.61243818
  exchange ACFDT corr.  =        -0.00100118  see jH, gK, PRB 81, 115126


--------------------------------------------------------------------------------------------------------




--------------------------------------- Iteration      1(  16)  ---------------------------------------


    POTLOK:  cpu time    0.8567: real time    0.8592
    SETDIJ:  cpu time    1.0162: real time    1.0215
    TRIAL :  cpu time  165.6382: real time  166.0827
    CORREC:  cpu time    0.0017: real time    0.0017
    CHARGE:  cpu time    0.7446: real time    0.7464
    --------------------------------------------
      LOOP:  cpu time  168.2585: real time  168.7161

 eigenvalue-minimisations  :     0
 total energy-change (2. order) :-0.8890069E-02  (-0.8057131E-02)
 number of electron     249.0000012 magnetization       5.0044769
 augmentation part       14.4567049 magnetization       3.7572270

 DIPCOR: dipole corrections for dipol
 direction  3 min pos     1,
 dipolmoment           0.000000      0.000000     -0.286784 electrons x Angstroem
 Tr[quadrupol]     -6893.593648

 energy correction for charged system         0.000000 eV
 dipol+quadrupol energy correction           -0.002351 eV
 added-field ion interaction          0.185933 eV  (added to PSCEN)


 Free energy of the ion-electron system (eV)
  ---------------------------------------------------
  alpha Z        PSCENC =       105.87249500
  Ewald energy   TEWEN  =     40676.98678303
  -Hartree energ DENC   =    -49359.61769719
  -exchange      EXHF   =       567.22557989
  -V(xc)+E(xc)   XCENC  =       632.48451584
  PAW double counting   =     27667.25283431   -27714.41140666
  entropy T*S    EENTRO =        -0.00227876
  eigenvalues    EBANDS =     -3243.33024076
  atomic energy  EATOM  =     10046.91700171
  ---------------------------------------------------
  free energy    TOTEN  =      -620.62252165 eV

  energy without entropy =     -620.62024290  energy(sigma->0) =     -620.62138227
  exchange ACFDT corr.  =        -0.00093655  see jH, gK, PRB 81, 115126


--------------------------------------------------------------------------------------------------------




--------------------------------------- Iteration      1(  17)  ---------------------------------------


    POTLOK:  cpu time    0.8534: real time    0.8574
    SETDIJ:  cpu time    1.0112: real time    1.0136
    TRIAL :  cpu time  165.8340: real time  166.2793
    CORREC:  cpu time    0.0014: real time    0.0014
    CHARGE:  cpu time    0.7432: real time    0.7451
    --------------------------------------------
      LOOP:  cpu time  168.4442: real time  168.9016

 eigenvalue-minimisations  :     0
 total energy-change (2. order) :-0.7717935E-02  (-0.7049990E-02)
 number of electron     249.0000012 magnetization       5.0041101
 augmentation part       14.4577280 magnetization       3.7587452

 DIPCOR: dipole corrections for dipol
 direction  3 min pos     1,
 dipolmoment           0.000000      0.000000     -0.286496 electrons x Angstroem
 Tr[quadrupol]     -6893.594351

 energy correction for charged system         0.000000 eV
 dipol+quadrupol energy correction           -0.002347 eV
 added-field ion interaction          0.185747 eV  (added to PSCEN)


 Free energy of the ion-electron system (eV)
  ---------------------------------------------------
  alpha Z        PSCENC =       105.87231330
  Ewald energy   TEWEN  =     40676.98678303
  -Hartree energ DENC   =    -49359.71338298
  -exchange      EXHF   =       567.25803968
  -V(xc)+E(xc)   XCENC  =       632.49229900
  PAW double counting   =     27669.15007147   -27716.32572863
  entropy T*S    EENTRO =        -0.00219018
  eigenvalues    EBANDS =     -3243.26535741
  atomic energy  EATOM  =     10046.91700171
  ---------------------------------------------------
  free energy    TOTEN  =      -620.63023959 eV

  energy without entropy =     -620.62804940  energy(sigma->0) =     -620.62914450
  exchange ACFDT corr.  =        -0.00088412  see jH, gK, PRB 81, 115126


--------------------------------------------------------------------------------------------------------




--------------------------------------- Iteration      1(  18)  ---------------------------------------


    POTLOK:  cpu time    0.8540: real time    0.8581
    SETDIJ:  cpu time    1.0138: real time    1.0164
    TRIAL :  cpu time  165.6346: real time  166.0745
    CORREC:  cpu time    0.0015: real time    0.0015
    CHARGE:  cpu time    0.7455: real time    0.7473
    --------------------------------------------
      LOOP:  cpu time  168.2507: real time  168.7025

 eigenvalue-minimisations  :     0
 total energy-change (2. order) :-0.6778644E-02  (-0.6239330E-02)
 number of electron     249.0000012 magnetization       5.0037799
 augmentation part       14.4586763 magnetization       3.7597826

 DIPCOR: dipole corrections for dipol
 direction  3 min pos     1,
 dipolmoment           0.000000      0.000000     -0.286225 electrons x Angstroem
 Tr[quadrupol]     -6893.594876

 energy correction for charged system         0.000000 eV
 dipol+quadrupol energy correction           -0.002342 eV
 added-field ion interaction          0.185571 eV  (added to PSCEN)


 Free energy of the ion-electron system (eV)
  ---------------------------------------------------
  alpha Z        PSCENC =       105.87214177
  Ewald energy   TEWEN  =     40676.98678303
  -Hartree energ DENC   =    -49359.79982763
  -exchange      EXHF   =       567.28740982
  -V(xc)+E(xc)   XCENC  =       632.49891721
  PAW double counting   =     27670.91130258   -27718.10180426
  entropy T*S    EENTRO =        -0.00211713
  eigenvalues    EBANDS =     -3243.20675228
  atomic energy  EATOM  =     10046.91700171
  ---------------------------------------------------
  free energy    TOTEN  =      -620.63701823 eV

  energy without entropy =     -620.63490111  energy(sigma->0) =     -620.63595967
  exchange ACFDT corr.  =        -0.00084123  see jH, gK, PRB 81, 115126


--------------------------------------------------------------------------------------------------------




--------------------------------------- Iteration      1(  19)  ---------------------------------------


    POTLOK:  cpu time    0.8529: real time    0.8550
    SETDIJ:  cpu time    0.9969: real time    0.9993
    TRIAL :  cpu time  165.6921: real time  166.1477
    CORREC:  cpu time    0.0012: real time    0.0012
    CHARGE:  cpu time    0.7452: real time    0.7470
    --------------------------------------------
      LOOP:  cpu time  168.2896: real time  168.7550

 eigenvalue-minimisations  :     0
 total energy-change (2. order) :-0.6018526E-02  (-0.5576995E-02)
 number of electron     249.0000012 magnetization       5.0034815
 augmentation part       14.4595333 magnetization       3.7603897

 DIPCOR: dipole corrections for dipol
 direction  3 min pos     1,
 dipolmoment           0.000000      0.000000     -0.285857 electrons x Angstroem
 Tr[quadrupol]     -6893.595220

 energy correction for charged system         0.000000 eV
 dipol+quadrupol energy correction           -0.002336 eV
 added-field ion interaction          0.185333 eV  (added to PSCEN)


 Free energy of the ion-electron system (eV)
  ---------------------------------------------------
  alpha Z        PSCENC =       105.87190945
  Ewald energy   TEWEN  =     40676.98678303
  -Hartree energ DENC   =    -49359.87887244
  -exchange      EXHF   =       567.31408649
  -V(xc)+E(xc)   XCENC  =       632.50460476
  PAW double counting   =     27672.44175296   -27719.64585563
  entropy T*S    EENTRO =        -0.00205662
  eigenvalues    EBANDS =     -3243.15232996
  atomic energy  EATOM  =     10046.91700171
  ---------------------------------------------------
  free energy    TOTEN  =      -620.64303676 eV

  energy without entropy =     -620.64098014  energy(sigma->0) =     -620.64200845
  exchange ACFDT corr.  =        -0.00080584  see jH, gK, PRB 81, 115126


--------------------------------------------------------------------------------------------------------




--------------------------------------- Iteration      1(  20)  ---------------------------------------


    POTLOK:  cpu time    0.8522: real time    0.8544
    SETDIJ:  cpu time    1.0086: real time    1.0110
    TRIAL :  cpu time  165.5652: real time  166.0133
    CORREC:  cpu time    0.0011: real time    0.0011
    CHARGE:  cpu time    0.7435: real time    0.7453
    --------------------------------------------
      LOOP:  cpu time  168.1720: real time  168.6301

 eigenvalue-minimisations  :     0
 total energy-change (2. order) :-0.5394226E-02  (-0.5027538E-02)
 number of electron     249.0000012 magnetization       5.0032105
 augmentation part       14.4602990 magnetization       3.7606156

 DIPCOR: dipole corrections for dipol
[...]
  in kB     -22.43288   -18.55141     0.20935    -6.17016    -0.37844    -0.48769
  external pressure =      -13.59 kB  Pullay stress =        0.00 kB


 VOLUME and BASIS-vectors are now :
 -----------------------------------------------------------------------------
  energy-cutoff  :      500.00
  volume of cell :     3176.88
      direct lattice vectors                 reciprocal lattice vectors
    12.810000000  0.000000000  0.000000000     0.078064012  0.000000000  0.000000000
     0.000000000 12.400000000  0.000000000     0.000000000  0.080645161  0.000000000
     0.000000000  0.000000000 20.000000000     0.000000000  0.000000000  0.050000000

  length of vectors
    12.810000000 12.400000000 20.000000000     0.078064012  0.080645161  0.050000000


 FORCES acting on ions:
    Electron-Ion                     Ewald-Force                    Non-Local-Force
 -----------------------------------------------------------------------------------------------
   0.601E+01 -.631E+01 0.489E+01   -.607E+01 0.617E+01 -.493E+01   0.136E+00 -.609E-01 0.317E-01
   -.108E+01 -.216E+01 0.552E+01   0.122E+01 0.207E+01 -.555E+01   -.153E+00 0.545E-01 0.161E-01
   0.638E+01 0.535E+00 0.485E+01   -.640E+01 -.663E+00 -.481E+01   -.567E-01 0.781E-01 -.445E-01
   0.140E+02 0.293E+01 -.576E+00   -.143E+02 -.304E+01 0.640E+00   0.294E+00 0.151E+00 -.719E-01
   0.741E+01 0.416E+01 -.652E+01   -.747E+01 -.427E+01 0.646E+01   0.770E-01 0.933E-01 0.546E-01
   0.413E+01 0.479E+01 0.111E+02   -.403E+01 -.510E+01 -.112E+02   -.336E-01 0.295E+00 0.912E-01
   0.500E+01 0.732E+01 0.183E+01   -.503E+01 -.741E+01 -.180E+01   -.126E-01 0.928E-01 -.342E-01
   0.209E+02 0.177E+02 -.173E+02   -.212E+02 -.179E+02 0.172E+02   0.286E+00 0.653E-01 0.134E+00
   0.283E+02 0.464E+02 -.721E+01   -.300E+02 -.492E+02 0.658E+01   0.174E+01 0.306E+01 0.643E+00
   0.157E+02 0.232E+01 0.988E+01   -.160E+02 -.210E+01 -.975E+01   0.235E+00 -.143E+00 -.118E+00
   0.168E+02 0.117E+02 0.114E+02   -.172E+02 -.120E+02 -.115E+02   0.413E+00 0.192E+00 0.106E+00
   0.334E+02 -.350E+02 0.245E+02   -.351E+02 0.383E+02 -.253E+02   0.171E+01 -.301E+01 0.829E+00
   0.121E+02 -.726E+01 0.213E+02   -.123E+02 0.749E+01 -.213E+02   0.223E+00 -.218E+00 0.651E-01
   0.185E+02 -.642E+01 0.216E+02   -.187E+02 0.698E+01 -.217E+02   0.142E+00 -.477E+00 0.148E+00
   0.387E+02 -.112E+02 0.285E+02   -.419E+02 0.111E+02 -.288E+02   0.292E+01 0.491E-01 0.276E+00
   0.187E+02 -.121E+02 0.205E+02   -.189E+02 0.120E+02 -.205E+02   0.237E+00 -.648E-01 0.701E-01
   0.290E+01 -.345E+01 0.110E+02   -.277E+01 0.351E+01 -.111E+02   -.113E+00 0.195E-01 0.381E-01
   0.721E+01 -.648E+01 0.162E+02   -.744E+01 0.630E+01 -.161E+02   0.191E+00 0.113E+00 -.643E-01
   0.149E+02 -.919E+01 0.125E+02   -.153E+02 0.962E+01 -.125E+02   0.258E+00 -.220E+00 0.638E-01
   -.159E+01 -.524E+01 0.147E+02   0.131E+01 0.525E+01 -.147E+02   0.254E+00 -.645E-01 -.397E-01
   0.715E+01 0.513E+01 0.937E+01   -.766E+01 -.555E+01 -.943E+01   0.403E+00 0.396E+00 0.650E-01
   0.529E+01 -.515E+01 0.128E+02   -.513E+01 0.508E+01 -.129E+02   -.989E-01 0.189E-01 0.240E-01
   -.886E+01 0.753E+01 0.189E+02   0.904E+01 -.798E+01 -.190E+02   -.127E+00 0.479E+00 0.642E-01
   -.194E+01 0.189E+02 0.158E+02   0.187E+01 -.195E+02 -.155E+02   0.125E+00 0.642E+00 -.195E+00
   0.392E+02 0.433E+02 -.654E+01   -.416E+02 -.466E+02 0.584E+01   0.237E+01 0.316E+01 0.688E+00
   0.893E+01 0.218E+02 0.124E+02   -.927E+01 -.223E+02 -.125E+02   0.251E+00 0.576E+00 0.181E+00
   -.223E+02 0.307E+02 0.278E+02   0.231E+02 -.319E+02 -.281E+02   -.694E+00 0.102E+01 0.297E+00
   -.336E+02 0.429E+02 0.762E+01   0.358E+02 -.464E+02 -.839E+01   -.228E+01 0.356E+01 0.776E+00
   0.103E+01 -.462E+02 0.177E+02   -.290E+01 0.493E+02 -.178E+02   0.176E+01 -.297E+01 0.791E-01
   0.914E+01 -.202E+02 0.123E+02   -.914E+01 0.205E+02 -.123E+02   0.145E+00 -.275E+00 -.648E-01
   0.768E-02 -.453E+02 0.193E+02   0.128E+01 0.480E+02 -.195E+02   -.112E+01 -.263E+01 0.271E+00
   -.117E+02 -.167E+02 0.155E+02   0.115E+02 0.171E+02 -.155E+02   0.960E-01 -.347E+00 0.517E-01
   -.592E+01 -.239E+01 0.145E+02   0.607E+01 0.234E+01 -.145E+02   -.128E+00 0.424E-01 0.211E-01
   -.888E+01 0.225E+01 0.207E+02   0.891E+01 -.235E+01 -.207E+02   -.111E+00 0.148E+00 0.106E-02
   -.943E+01 0.106E+01 0.178E+02   0.961E+01 -.108E+01 -.178E+02   -.193E+00 -.365E-01 0.444E-01
   -.177E+01 0.409E+01 0.129E+02   0.194E+01 -.424E+01 -.129E+02   -.145E+00 0.115E+00 0.269E-01
   -.863E+01 0.191E+01 0.177E+02   0.888E+01 -.196E+01 -.177E+02   -.236E+00 0.815E-01 0.960E-02
   -.216E+02 0.926E+01 0.272E+02   0.223E+02 -.941E+01 -.274E+02   -.716E+00 0.156E+00 0.204E+00
   -.111E+02 0.950E+01 0.239E+02   0.114E+02 -.978E+01 -.239E+02   -.245E+00 0.289E+00 0.538E-01
   -.286E+01 0.230E+01 0.160E+02   0.294E+01 -.239E+01 -.160E+02   -.122E+00 0.379E-01 0.632E-01
   -.883E+01 0.175E+01 0.132E+02   0.923E+01 -.157E+01 -.132E+02   -.375E+00 -.155E+00 0.651E-02
   -.541E+02 -.115E+02 0.112E+02   0.581E+02 0.121E+02 -.114E+02   -.399E+01 -.544E+00 0.151E+00
   -.239E+02 0.447E+00 0.156E+02   0.245E+02 -.526E+00 -.156E+02   -.482E+00 0.904E-01 -.173E-01
   -.104E+01 -.250E+01 0.940E+01   0.926E+00 0.281E+01 -.940E+01   0.107E+00 -.330E+00 -.160E-01
   -.416E+00 -.201E+01 0.109E+02   0.499E+00 0.225E+01 -.109E+02   0.468E-02 -.145E+00 0.197E-01
   -.495E+02 0.141E+01 0.112E+02   0.529E+02 -.162E+01 -.112E+02   -.361E+01 0.309E+00 0.128E-01
   -.224E+02 -.392E+01 0.105E+02   0.226E+02 0.408E+01 -.106E+02   -.212E+00 -.212E+00 0.382E-01
   -.244E+01 0.370E-01 0.148E+02   0.249E+01 -.198E+00 -.148E+02   -.129E+00 0.996E-01 -.872E-02
   -.555E+01 -.567E+01 0.132E+02   0.580E+01 0.547E+01 -.132E+02   -.292E+00 0.170E+00 0.358E-01
   -.142E+02 -.877E+01 0.151E+02   0.144E+02 0.900E+01 -.151E+02   -.233E+00 -.129E+00 0.364E-01
   -.189E+02 -.138E+01 0.118E+02   0.194E+02 0.147E+01 -.118E+02   -.388E+00 -.117E+00 0.228E-02
   -.190E+01 0.223E+01 0.125E+02   0.202E+01 -.225E+01 -.125E+02   -.111E+00 0.539E-01 0.575E-03
   0.524E+01 0.669E+01 -.296E+02   0.153E+02 -.629E+01 0.313E+02   -.195E+02 -.649E+00 -.192E+01
   0.346E+02 0.222E+02 -.522E+02   -.442E+02 -.531E+01 0.557E+02   0.937E+01 -.159E+02 -.356E+01
   -.483E+02 -.323E+02 0.767E+01   0.388E+02 0.492E+02 -.716E+01   0.914E+01 -.163E+02 -.418E+00
   0.245E+02 0.820E+01 0.400E+02   -.152E+02 -.246E+02 -.410E+02   -.881E+01 0.154E+02 0.985E+00
   -.322E+02 0.132E+02 0.308E+02   0.230E+02 -.291E+02 -.316E+02   0.897E+01 0.151E+02 0.734E+00
   0.404E+02 -.278E+02 -.761E+03   -.433E+02 0.244E+02 0.754E+03   0.157E+01 0.295E+01 0.838E+01
   -.668E+01 -.179E+02 0.105E+03   0.112E+02 0.228E+02 -.105E+03   -.369E+01 -.381E+01 -.145E+01
 -----------------------------------------------------------------------------------------------
   0.499E+01 -.136E+00 -.809E+01   0.000E+00 -.995E-13 -.568E-13   -.497E+01 0.293E+00 0.787E+01
 
 
 POSITION                                       TOTAL-FORCE (eV/Angst)
 -----------------------------------------------------------------------------------
      2.84937      0.02938      9.99175         0.080664     -0.211635     -0.009420
      0.73538      1.26833      9.97586        -0.022156     -0.037018     -0.013984
      1.42457      0.01980      9.97427        -0.070738     -0.040612     -0.012822
      3.56308      1.28119     10.03452         0.095200      0.048269     -0.012709
      2.88026      2.54433     10.08271         0.018521     -0.021515     -0.005776
      0.73031      3.75552      9.99640         0.064432     -0.000910      0.022644
      1.44839      2.52117     10.02141        -0.041597      0.017875     -0.008890
      3.60740      3.79883     10.18138         0.055056     -0.149682     -0.010553
      2.85413      5.05180     10.18314         0.097526      0.479186      0.052080
      0.69433      6.24180     10.00414         0.015368      0.060225     -0.000216
      1.42644      5.00684     10.04354         0.000925     -0.111513      0.021560
      2.84166      7.47383     10.07494         0.007453      0.102421      0.034149
      0.68468      8.70144      9.94022         0.067445      0.000072      0.029859
      1.41102      7.47961      9.98840        -0.048132      0.064605      0.070802
      3.60605      8.70173     10.00215        -0.154698     -0.064521     -0.051360
      2.85849      9.92811      9.95877        -0.007606     -0.155842      0.031313
      0.71305     11.17420      9.94425         0.014388      0.073756      0.001791
      1.41977      9.92849      9.94431        -0.028538     -0.059463      0.013666
      3.54944     11.19036      9.96894        -0.090812      0.200047      0.013602
      7.11141      0.01602      9.94128        -0.008510     -0.056589      0.003547
      4.98146      1.25853     10.00900        -0.085753      0.004976      0.006899
      5.69089      0.02343      9.96662         0.061584     -0.049836     -0.010848
      7.84418      1.23066      9.93381         0.040180      0.061135     -0.001847
      7.13690      2.44856      9.98775         0.075269      0.043208      0.004218
      5.05191      3.73309     10.19162         0.147823      0.077201      0.027830
      5.71391      2.47949     10.04545        -0.070991      0.058442      0.036684
      7.87711      3.65407      9.98566         0.065267     -0.074578      0.014268
      7.18389      4.84688     10.12823        -0.188371      0.242066      0.045733
      7.10075      9.97171      9.95347        -0.013213     -0.052712     -0.025999
      4.97471     11.18960      9.96861         0.153057     -0.053035      0.005696
      5.67032      9.95920      9.97179         0.106780     -0.035892      0.063665
      7.81601     11.18861      9.93260        -0.051078      0.074767      0.020413
     11.40025      0.00963      9.91590         0.012544     -0.017885      0.010175
      9.26962      1.23842      9.90594        -0.085467      0.049561      0.013299
      9.97172      0.00240      9.90513        -0.027161     -0.056116      0.013905
     12.12064      1.25261      9.93272         0.023756     -0.020938      0.001265
     11.41544      2.49117      9.92099        -0.002629      0.040488      0.014086
      9.28990      3.69554      9.92932        -0.083522      0.006861      0.046101
      9.99427      2.47042      9.90505        -0.016029      0.025194      0.018634
     12.10949      3.74287      9.94741        -0.040472     -0.046644      0.018850
     11.38211      4.97889      9.95475         0.007256      0.024082      0.005979
      9.18065      6.16477     10.00260        -0.183444      0.003233      0.035254
      9.95424      4.95477      9.95842         0.027841      0.012454     -0.003548
     12.06919      6.23086      9.97133         0.000796     -0.040746     -0.011053
     11.31644      7.45471      9.95641         0.099697      0.094028     -0.016389
      9.15121      8.69986      9.95905        -0.410121      0.115199     -0.011574
      9.85891      7.43947      9.97083        -0.002571     -0.057882     -0.007734
     12.05505      8.68442      9.93624        -0.088676     -0.050673     -0.004607
     11.35415      9.92424      9.92709        -0.051542     -0.029331      0.008949
      9.24234     11.17594      9.91898        -0.038776      0.094511      0.013729
      9.92065      9.92234      9.93349         0.066387     -0.030202      0.007902
     12.09038     11.16333      9.92589        -0.001147      0.039433      0.002093
      3.49088      6.27353     10.30466        -0.609859     -0.300933     -0.296688
      5.83548      4.86386     10.35364         0.554775     -0.400142     -0.353935
      7.79850      6.07624     10.08480         0.422055     -0.859606      0.066301
      5.02010      8.72288     10.00874        -0.230198      0.291619      0.113549
      7.76472      8.75830      9.96008         0.459201      0.393579     -0.020206
      5.13824      6.36496     11.35030        -0.826851     -0.436791      0.802829
      6.44595      7.39444     10.06984         0.739412      0.724750     -0.823158
 -----------------------------------------------------------------------------------
    total drift:                                0.001266      0.005502      0.007223


--------------------------------------------------------------------------------------------------------



  FREE ENERGIE OF THE ION-ELECTRON SYSTEM (eV)
  ---------------------------------------------------
  free  energy   TOTEN  =      -620.72242145 eV

  energy  without entropy=     -620.72120475  energy(sigma->0) =     -620.72181310
 


--------------------------------------------------------------------------------------------------------


    POTLOK:  cpu time    1.8548: real time    1.8602


--------------------------------------------------------------------------------------------------------


 stress matrix after NEB project (eV)
    -44.48108    -12.23259     -0.96702
    -12.23452    -36.78469     -0.74760
     -0.96828     -0.75040      0.41512
  FORCES: max atom, RMS     1.322718    0.341820
  FORCE total and by dimension    2.625568    0.859606
  Stress total and by dimension   60.284048   44.481076
 writing wavefunctions
     LOOP+:  cpu time17033.4341: real time17086.9457
 vacuum level on the upper side and lower side of the slab         1.321         1.640
    4ORBIT:  cpu time    0.0000: real time    0.0000
 


 total charge     
 
# of ion       s       p       d       tot
------------------------------------------
    1        0.864   1.767   0.000   2.631
    2        0.865   1.759   0.000   2.624
    3        0.865   1.773   0.000   2.637
    4        0.862   1.767   0.000   2.629
    5        0.860   1.737   0.000   2.597
    6        0.865   1.761   0.000   2.625
    7        0.861   1.763   0.000   2.623
    8        0.848   1.742   0.000   2.590
    9        0.855   1.696   0.000   2.551
   10        0.865   1.749   0.000   2.614
   11        0.862   1.768   0.000   2.630
   12        0.852   1.736   0.000   2.588
   13        0.863   1.767   0.000   2.630
   14        0.866   1.772   0.000   2.638
   15        0.846   1.708   0.000   2.554
   16        0.861   1.748   0.000   2.610
   17        0.864   1.756   0.000   2.620
   18        0.862   1.760   0.000   2.622
   19        0.864   1.770   0.000   2.635
   20        0.869   1.794   0.000   2.664
   21        0.870   1.775   0.000   2.644
   22        0.866   1.782   0.000   2.648
   23        0.871   1.794   0.000   2.664
   24        0.874   1.787   0.000   2.661
   25        0.858   1.717   0.000   2.574
   26        0.867   1.788   0.000   2.655
   27        0.877   1.835   0.000   2.712
   28        0.869   1.746   0.000   2.616
   29        0.863   1.761   0.000   2.624
   30        0.870   1.783   0.000   2.653
   31        0.859   1.748   0.000   2.607
   32        0.871   1.794   0.000   2.665
   33        0.866   1.763   0.000   2.629
   34        0.868   1.773   0.000   2.641
   35        0.866   1.780   0.000   2.646
   36        0.865   1.772   0.000   2.636
   37        0.868   1.769   0.000   2.638
   38        0.872   1.788   0.000   2.660
   39        0.869   1.787   0.000   2.656
   40        0.863   1.765   0.000   2.628
   41        0.866   1.757   0.000   2.624
   42        0.855   1.708   0.000   2.563
   43        0.863   1.779   0.000   2.642
   44        0.861   1.766   0.000   2.627
   45        0.857   1.736   0.000   2.594
   46        0.852   1.702   0.000   2.555
   47        0.849   1.751   0.000   2.600
   48        0.861   1.765   0.000   2.627
   49        0.864   1.755   0.000   2.619
   50        0.868   1.767   0.000   2.635
   51        0.862   1.768   0.000   2.629
   52        0.863   1.762   0.000   2.625
   53        1.230   2.676   0.000   3.906
   54        1.231   2.698   0.000   3.929
   55        1.231   2.688   0.000   3.919
   56        1.217   2.648   0.000   3.865
   57        1.227   2.673   0.000   3.900
   58        0.421   0.371   6.381   7.172
   59        0.465   0.580   6.377   7.423
--------------------------------------------------
tot         51.912 105.953  12.758 170.623
 


 magnetization (x)
 
# of ion       s       p       d       tot
------------------------------------------
    1       -0.000  -0.001   0.000  -0.001
    2       -0.000  -0.002   0.000  -0.002
    3        0.000   0.003   0.000   0.003
    4        0.000   0.005   0.000   0.005
    5       -0.001  -0.007   0.000  -0.007
    6       -0.000  -0.002   0.000  -0.002
    7        0.000   0.004   0.000   0.004
    8        0.001   0.010   0.000   0.011
    9        0.000   0.001   0.000   0.002
   10       -0.001  -0.008   0.000  -0.009
   11        0.001   0.004   0.000   0.004
   12       -0.000  -0.007   0.000  -0.008
   13        0.000  -0.000   0.000  -0.000
   14        0.001   0.006   0.000   0.007
   15        0.001  -0.001   0.000  -0.001
   16        0.000   0.001   0.000   0.001
   17       -0.000  -0.005   0.000  -0.005
   18        0.000   0.003   0.000   0.003
   19        0.000   0.001   0.000   0.001
   20       -0.000  -0.001   0.000  -0.001
   21       -0.000  -0.002   0.000  -0.003
   22        0.000   0.002   0.000   0.002
   23        0.000   0.003   0.000   0.003
   24       -0.000  -0.002   0.000  -0.002
   25       -0.001  -0.002   0.000  -0.003
   26        0.000   0.004   0.000   0.004
   27        0.000   0.002   0.000   0.002
   28       -0.001  -0.002   0.000  -0.002
   29        0.000   0.002   0.000   0.002
   30       -0.000  -0.004   0.000  -0.004
   31       -0.000   0.003   0.000   0.002
   32       -0.000   0.001   0.000   0.001
   33       -0.000  -0.003   0.000  -0.004
   34       -0.000  -0.003   0.000  -0.003
   35        0.000   0.003   0.000   0.003
   36        0.000   0.004   0.000   0.004
   37       -0.000  -0.006   0.000  -0.006
   38       -0.000  -0.005   0.000  -0.006
   39        0.000   0.004   0.000   0.005
   40        0.000   0.003   0.000   0.004
   41       -0.000  -0.002   0.000  -0.003
   42       -0.001  -0.009   0.000  -0.010
   43        0.000   0.005   0.000   0.005
   44        0.001   0.006   0.000   0.006
   45       -0.001  -0.007   0.000  -0.007
   46       -0.001  -0.004   0.000  -0.004
   47        0.001   0.005   0.000   0.005
   48        0.000   0.004   0.000   0.004
   49       -0.000  -0.003   0.000  -0.004
   50       -0.000  -0.004   0.000  -0.004
   51       -0.000   0.003   0.000   0.003
   52        0.000   0.004   0.000   0.004
   53        0.005   0.024   0.000   0.029
   54        0.002   0.024   0.000   0.026
   55       -0.002  -0.004   0.000  -0.006
   56       -0.002  -0.011   0.000  -0.013
   57       -0.007  -0.032   0.000  -0.039
   58       -0.003   0.032   2.953   2.981
   59        0.008  -0.012   1.723   1.719
--------------------------------------------------
tot          0.002   0.023   4.676   4.700
 

 total amount of memory used by VASP MPI-rank0   150140. kBytes
=======================================================================

   base      :      30000. kBytes
   nonl-proj :       3715. kBytes
   fftplans  :      11188. kBytes
   grid      :      27138. kBytes
   one-center:         62. kBytes
   HF        :         23. kBytes
   nonlr-proj:      15686. kBytes
   wavefun   :      62328. kBytes
 
  
  
 General timing and accounting informations for this job:
 ========================================================
  
                  Total CPU time used (sec):    17080.574
                            User time (sec):    17019.802
                          System time (sec):       60.772
                         Elapsed time (sec):    17141.175
  
                   Maximum memory used (kb):      393504.
                   Average memory used (kb):           0.
  
                          Minor page faults:      1747440
                          Major page faults:            1
                 Voluntary context switches:       279545
