 vasp.5.4.4.18Apr17-6-g9f103f2a35 (build Feb 25 2019 10:51:38) complex          
  
 executed on             LinuxIFC date 2021.06.15  03:28:51
 running on   48 total cores
 distrk:  each k-point on   16 cores,    3 groups
 distr:  one band on NCORES_PER_BAND=  16 cores,    1 groups


--------------------------------------------------------------------------------------------------------


 INCAR:
 POTCAR:    PAW_PBE C 08Apr2002                   
 POTCAR:    PAW_PBE N 08Apr2002                   
 POTCAR:    PAW_PBE Fe 06Sep2000                  
 POTCAR:    PAW_PBE Mn 06Sep2000                  

 ----------------------------------------------------------------------------- 
|                                                                             |
|           W    W    AA    RRRRR   N    N  II  N    N   GGGG   !!!           |
|           W    W   A  A   R    R  NN   N  II  NN   N  G    G  !!!           |
|           W    W  A    A  R    R  N N  N  II  N N  N  G       !!!           |
|           W WW W  AAAAAA  RRRRR   N  N N  II  N  N N  G  GGG   !            |
|           WW  WW  A    A  R   R   N   NN  II  N   NN  G    G                |
|           W    W  A    A  R    R  N    N  II  N    N   GGGG   !!!           |
|                                                                             |
|      For optimal performance we recommend to set                            |
|        NCORE= 4 - approx SQRT( number of cores)                             |
|      NCORE specifies how many cores store one orbital (NPAR=cpu/NCORE).     |
|      This setting can  greatly improve the performance of VASP for DFT.     |
|      The default,   NCORE=1            might be grossly inefficient         |
|      on modern multi-core architectures or massively parallel machines.     |
|      Do your own testing !!!!                                               |
|      Unfortunately you need to use the default for GW and RPA calculations. |
|      (for HF NCORE is supported but not extensively tested yet)             |
|                                                                             |
 ----------------------------------------------------------------------------- 


 ----------------------------------------------------------------------------- 
|                                                                             |
|           W    W    AA    RRRRR   N    N  II  N    N   GGGG   !!!           |
|           W    W   A  A   R    R  NN   N  II  NN   N  G    G  !!!           |
|           W    W  A    A  R    R  N N  N  II  N N  N  G       !!!           |
|           W WW W  AAAAAA  RRRRR   N  N N  II  N  N N  G  GGG   !            |
|           WW  WW  A    A  R   R   N   NN  II  N   NN  G    G                |
|           W    W  A    A  R    R  N    N  II  N    N   GGGG   !!!           |
|                                                                             |
|      You have enabled k-point parallelism (KPAR>1).                         |
|      This developmental code was originally  written by Paul Kent at ORNL,  |
|      and carefully double checked in Vienna.                                |
|      GW as well as linear response parallelism added by Martijn Marsman     |
|      and Georg Kresse.                                                      |
|      Carefully verify results versus KPAR=1.                                |
|      Report problems to Paul Kent and Vienna.                               |
|                                                                             |
 ----------------------------------------------------------------------------- 

 POTCAR:    PAW_PBE C 08Apr2002                   
   VRHFIN =C: s2p2                                                              
   LEXCH  = PE                                                                  
   EATOM  =   147.1560 eV,   10.8157 Ry                                         
                                                                                
   TITEL  = PAW_PBE C 08Apr2002                                                 
   LULTRA =        F    use ultrasoft PP ?                                      
   IUNSCR =        1    unscreen: 0-lin 1-nonlin 2-no                           
   RPACOR =    1.200    partial core radius                                     
   POMASS =   12.011; ZVAL   =    4.000    mass and valenz                      
   RCORE  =    1.500    outmost cutoff radius                                   
   RWIGS  =    1.630; RWIGS  =    0.863    wigner-seitz radius (au A)           
   ENMAX  =  400.000; ENMIN  =  300.000 eV                                      
   ICORE  =        2    local potential                                         
   LCOR   =        T    correct aug charges                                     
   LPAW   =        T    paw PP                                                  
   EAUG   =  644.873                                                            
   DEXC   =    0.000                                                            
   RMAX   =    1.529    core radius for proj-oper                               
   RAUG   =    1.300    factor for augmentation sphere                          
   RDEP   =    1.501    radius for radial grids                                 
   RDEPT  =    1.300    core radius for aug-charge                              
                                                                                
   Atomic configuration                                                         
    4 entries                                                                   
     n  l   j            E        occ.                                          
     1  0  0.50      -273.3789   2.0000                                         
     2  0  0.50       -13.7508   2.0000                                         
     2  1  0.50        -5.2854   2.0000                                         
     3  2  1.50        -5.4423   0.0000                                         
   Description                                                                  
     l       E           TYP  RCUT    TYP  RCUT                                 
     0    -13.7508458     23  1.200                                             
     0     -8.2022199     23  1.200                                             
     1     -5.2854383     23  1.500                                             
     1     34.0145650     23  1.500                                             
     2     -5.4423304      7  1.500                                             
  local pseudopotential read in
  partial core-charges read in
  partial kinetic energy density read in
  atomic valenz-charges read in
  non local Contribution for L=           0  read in
    real space projection operators read in
  non local Contribution for L=           0  read in
    real space projection operators read in
  non local Contribution for L=           1  read in
    real space projection operators read in
  non local Contribution for L=           1  read in
    real space projection operators read in
    PAW grid and wavefunctions read in
 
   number of l-projection  operators is LMAX  =           4
   number of lm-projection operators is LMMAX =           8
 
 POTCAR:    PAW_PBE N 08Apr2002                   
   VRHFIN =N: s2p3                                                              
   LEXCH  = PE                                                                  
   EATOM  =   264.5486 eV,   19.4438 Ry                                         
                                                                                
   TITEL  = PAW_PBE N 08Apr2002                                                 
   LULTRA =        F    use ultrasoft PP ?                                      
   IUNSCR =        1    unscreen: 0-lin 1-nonlin 2-no                           
   RPACOR =    1.200    partial core radius                                     
   POMASS =   14.001; ZVAL   =    5.000    mass and valenz                      
   RCORE  =    1.500    outmost cutoff radius                                   
   RWIGS  =    1.400; RWIGS  =    0.741    wigner-seitz radius (au A)           
   ENMAX  =  400.000; ENMIN  =  300.000 eV                                      
   ICORE  =        2    local potential                                         
   LCOR   =        T    correct aug charges                                     
   LPAW   =        T    paw PP                                                  
   EAUG   =  627.112                                                            
   DEXC   =    0.000                                                            
   RMAX   =    1.529    core radius for proj-oper                               
   RAUG   =    1.300    factor for augmentation sphere                          
   RDEP   =    1.514    radius for radial grids                                 
   RDEPT  =    1.338    core radius for aug-charge                              
                                                                                
   Atomic configuration                                                         
    4 entries                                                                   
     n  l   j            E        occ.                                          
     1  0  0.50      -384.7179   2.0000                                         
     2  0  0.50       -18.5828   2.0000                                         
     2  1  0.50        -7.0898   3.0000                                         
     3  2  1.50        -6.8029   0.0000                                         
   Description                                                                  
     l       E           TYP  RCUT    TYP  RCUT                                 
     0    -18.5828119     23  1.200                                             
     0    -13.5018863     23  1.200                                             
     1     -7.0897853     23  1.500                                             
     1      9.5240782     23  1.500                                             
     2     -6.8029130      7  1.500                                             
  local pseudopotential read in
  partial core-charges read in
  partial kinetic energy density read in
  atomic valenz-charges read in
  non local Contribution for L=           0  read in
    real space projection operators read in
  non local Contribution for L=           0  read in
    real space projection operators read in
  non local Contribution for L=           1  read in
    real space projection operators read in
  non local Contribution for L=           1  read in
    real space projection operators read in
    PAW grid and wavefunctions read in
 
   number of l-projection  operators is LMAX  =           4
   number of lm-projection operators is LMMAX =           8
 
 POTCAR:    PAW_PBE Fe 06Sep2000                  
   VRHFIN =Fe:  d7 s1                                                           
   LEXCH  = PE                                                                  
   EATOM  =   594.3153 eV,   43.6809 Ry                                         
                                                                                
   TITEL  = PAW_PBE Fe 06Sep2000                                                
   LULTRA =        F    use ultrasoft PP ?                                      
   IUNSCR =        1    unscreen: 0-lin 1-nonlin 2-no                           
   RPACOR =    2.000    partial core radius                                     
   POMASS =   55.847; ZVAL   =    8.000    mass and valenz                      
   RCORE  =    2.300    outmost cutoff radius                                   
   RWIGS  =    2.460; RWIGS  =    1.302    wigner-seitz radius (au A)           
   ENMAX  =  267.882; ENMIN  =  200.911 eV                                      
   RCLOC  =    1.701    cutoff for local pot                                    
   LCOR   =        T    correct aug charges                                     
   LPAW   =        T    paw PP                                                  
   EAUG   =  511.368                                                            
   DEXC   =    0.000                                                            
   RMAX   =    2.356    core radius for proj-oper                               
   RAUG   =    1.300    factor for augmentation sphere                          
   RDEP   =    2.442    radius for radial grids                                 
   RDEPT  =    1.890    core radius for aug-charge                              
                                                                                
   Atomic configuration                                                         
    9 entries                                                                   
     n  l   j            E        occ.                                          
     1  0  0.50     -6993.8440   2.0000                                         
     2  0  0.50      -814.6047   2.0000                                         
     2  1  1.50      -693.3689   6.0000                                         
     3  0  0.50       -89.4732   2.0000                                         
     3  1  1.50       -55.6373   6.0000                                         
     3  2  2.50        -3.8151   7.0000                                         
     4  0  0.50        -4.2551   1.0000                                         
     4  1  1.50        -3.4015   0.0000                                         
     4  3  2.50        -1.3606   0.0000                                         
   Description                                                                  
     l       E           TYP  RCUT    TYP  RCUT                                 
     2     -3.8151135     23  2.300                                             
     2     -5.1756961     23  2.300                                             
     0     -4.2550963     23  2.300                                             
     0      7.2035603     23  2.300                                             
     1     -2.7211652     23  2.300                                             
     1     18.4316424     23  2.300                                             
  local pseudopotential read in
  partial core-charges read in
  partial kinetic energy density read in
  atomic valenz-charges read in
  non local Contribution for L=           2  read in
    real space projection operators read in
  non local Contribution for L=           2  read in
    real space projection operators read in
  non local Contribution for L=           0  read in
    real space projection operators read in
  non local Contribution for L=           0  read in
    real space projection operators read in
  non local Contribution for L=           1  read in
    real space projection operators read in
  non local Contribution for L=           1  read in
    real space projection operators read in
    PAW grid and wavefunctions read in
 
   number of l-projection  operators is LMAX  =           6
   number of lm-projection operators is LMMAX =          18
 
 POTCAR:    PAW_PBE Mn 06Sep2000                  
   VRHFIN =Mn: d6 s1                                                            
   LEXCH  = PE                                                                  
   EATOM  =   416.7541 eV,   30.6306 Ry                                         
                                                                                
   TITEL  = PAW_PBE Mn 06Sep2000                                                
   LULTRA =        F    use ultrasoft PP ?                                      
   IUNSCR =        1    unscreen: 0-lin 1-nonlin 2-no                           
   RPACOR =    2.000    partial core radius                                     
   POMASS =   54.938; ZVAL   =    7.000    mass and valenz                      
   RCORE  =    2.300    outmost cutoff radius                                   
   RWIGS  =    2.500; RWIGS  =    1.323    wigner-seitz radius (au A)           
   ENMAX  =  269.864; ENMIN  =  202.398 eV                                      
   RCLOC  =    1.725    cutoff for local pot                                    
   LCOR   =        T    correct aug charges                                     
   LPAW   =        T    paw PP                                                  
   EAUG   =  500.711                                                            
   DEXC   =    0.000                                                            
   RMAX   =    2.343    core radius for proj-oper                               
   RAUG   =    1.300    factor for augmentation sphere                          
   RDEP   =    2.338    radius for radial grids                                 
   RDEPT  =    1.911    core radius for aug-charge                              
                                                                                
   Atomic configuration                                                         
    9 entries                                                                   
     n  l   j            E        occ.                                          
     1  0  0.50     -6424.8288   2.0000                                         
     2  0  0.50      -739.1154   2.0000                                         
     2  1  1.50      -625.3949   6.0000                                         
     3  0  0.50       -81.6100   2.0000                                         
     3  1  1.50       -50.4667   6.0000                                         
     3  2  2.50        -3.3745   6.0000                                         
     4  0  0.50        -4.1331   1.0000                                         
     4  1  0.50        -4.0817   0.0000                                         
     4  3  2.50        -1.3606   0.0000                                         
   Description                                                                  
     l       E           TYP  RCUT    TYP  RCUT                                 
     2     -3.3744664     23  2.300                                             
     2     -4.7350490     23  2.300                                             
     0     -4.1331408     23  2.300                                             
     0      7.6656614     23  2.300                                             
     1     -2.7211652     23  2.300                                             
     1     20.4087390     23  2.300                                             
  local pseudopotential read in
  partial core-charges read in
  partial kinetic energy density read in
  atomic valenz-charges read in
  non local Contribution for L=           2  read in
    real space projection operators read in
  non local Contribution for L=           2  read in
    real space projection operators read in
  non local Contribution for L=           0  read in
    real space projection operators read in
  non local Contribution for L=           0  read in
    real space projection operators read in
  non local Contribution for L=           1  read in
    real space projection operators read in
  non local Contribution for L=           1  read in
    real space projection operators read in
    PAW grid and wavefunctions read in
 
   number of l-projection  operators is LMAX  =           6
   number of lm-projection operators is LMMAX =          18
 

 ----------------------------------------------------------------------------- 
|                                                                             |
|  ADVICE TO THIS USER RUNNING 'VASP/VAMP'   (HEAR YOUR MASTER'S VOICE ...):  |
|                                                                             |
|      You have a (more or less) 'large supercell' and for larger cells       |
|      it might be more efficient to use real space projection opertators     |
|      So try LREAL= Auto  in the INCAR   file.                               |
|      Mind:          For very  accurate calculation you might also keep the  |
|      reciprocal projection scheme          (i.e. LREAL=.FALSE.)             |
|                                                                             |
 ----------------------------------------------------------------------------- 

  PAW_PBE C 08Apr2002                   :
 energy of atom  1       EATOM= -147.1560
 kinetic energy error for atom=    0.0076 (will be added to EATOM!!)
  PAW_PBE N 08Apr2002                   :
 energy of atom  2       EATOM= -264.5486
 kinetic energy error for atom=    0.0138 (will be added to EATOM!!)
  PAW_PBE Fe 06Sep2000                  :
 energy of atom  3       EATOM= -594.3153
 kinetic energy error for atom=    0.0026 (will be added to EATOM!!)
  PAW_PBE Mn 06Sep2000                  :
 energy of atom  4       EATOM= -416.7541
 kinetic energy error for atom=    0.0024 (will be added to EATOM!!)
 
 
 POSCAR:  C  N Fe Mn                             
  positions in cartesian coordinates
  No initial velocities read in
 exchange correlation table for  LEXCH =        8
   RHO(1)=    0.500       N(1)  =     2000
   RHO(2)=  100.500       N(2)  =     4000

 VTST: version 3.2, (02/03/18)

 CHAIN: initializing optimizer
 
 OPT: Using VASP Conjugate-Gradient optimizer
 CHAIN: Read ICHAIN            0
 
 POSCAR:  C  N Fe Mn                             
  positions in cartesian coordinates
  No initial velocities read in
 


--------------------------------------------------------------------------------------------------------


 ion  position               nearest neighbor table
   1  0.222  0.001  0.492-   3 1.43  19 1.43   4 1.44
   2  0.057  0.101  0.487-   3 1.43  37 1.43   7 1.44
   3  0.111  0.001  0.489-   1 1.43   2 1.43  17 1.43
   4  0.278  0.102  0.492-  21 1.42   1 1.44   5 1.44
   5  0.225  0.204  0.495-   7 1.44   4 1.44   8 1.45
   6  0.057  0.301  0.491-   7 1.43  11 1.43  41 1.43
   7  0.113  0.202  0.491-   6 1.43   2 1.44   5 1.44
   8  0.282  0.305  0.504-   5 1.45  25 1.46   9 1.48
   9  0.222  0.406  0.508-  54 1.38  11 1.44   8 1.48
  10  0.053  0.501  0.498-  14 1.42  45 1.43  11 1.44
  11  0.111  0.402  0.498-   6 1.43  10 1.44   9 1.44
  12  0.217  0.601  0.513-  54 1.39  14 1.43  15 1.45
  13  0.052  0.701  0.496-  14 1.43  18 1.43  49 1.43
  14  0.108  0.602  0.501-  10 1.42  12 1.43  13 1.43
  15  0.272  0.704  0.516-  16 1.43  29 1.45  12 1.45
  16  0.219  0.801  0.501-  15 1.43  18 1.43  19 1.44
  17  0.055  0.901  0.489-  18 1.43  53 1.43   3 1.43
  18  0.109  0.801  0.494-  17 1.43  16 1.43  13 1.43
  19  0.276  0.901  0.498-   1 1.43  31 1.44  16 1.44
  20  0.555  0.999  0.488-  23 1.42  33 1.43  22 1.43
  21  0.389  0.100  0.490-   4 1.42  26 1.43  22 1.43
  22  0.444  1.000  0.491-  20 1.43  31 1.43  21 1.43
  23  0.612  0.098  0.484-  24 1.42  20 1.42  35 1.43
  24  0.557  0.196  0.488-  27 1.42  23 1.42  26 1.43
  25  0.395  0.299  0.505-  55 1.39  26 1.43   8 1.46
  26  0.446  0.199  0.492-  21 1.43  24 1.43  25 1.43
  27  0.614  0.294  0.492-  28 1.41  24 1.42  39 1.42
  28  0.562  0.388  0.511-  56 1.37  55 1.38  27 1.41
  29  0.379  0.713  0.537-  57 1.34  15 1.45  32 1.45
  30  0.556  0.802  0.510-  58 1.39  33 1.43  32 1.45
  31  0.388  0.901  0.500-  22 1.43  32 1.43  19 1.44
  32  0.443  0.804  0.515-  31 1.43  30 1.45  29 1.45
  33  0.610  0.900  0.494-  30 1.43  20 1.43  51 1.43
  34  0.889  1.000  0.484-  53 1.43  36 1.43  37 1.44
  35  0.723  0.098  0.482-  36 1.43  40 1.43  23 1.43
  36  0.778  0.999  0.484-  35 1.43  51 1.43  34 1.43
  37  0.946  0.100  0.484-  38 1.43   2 1.43  34 1.44
  38  0.891  0.199  0.484-  37 1.43  40 1.43  41 1.43
  39  0.725  0.296  0.488-  40 1.42  27 1.42  44 1.43
  40  0.780  0.198  0.483-  39 1.42  35 1.43  38 1.43
  41  0.946  0.300  0.487-  38 1.43   6 1.43  42 1.43
  42  0.889  0.399  0.491-  45 1.42  44 1.42  41 1.43
  43  0.721  0.493  0.506-  56 1.38  44 1.43  48 1.45
  44  0.779  0.397  0.493-  42 1.42  39 1.43  43 1.43
  45  0.942  0.500  0.495-  42 1.42  10 1.43  46 1.44
  46  0.884  0.599  0.498-  49 1.44  45 1.44  48 1.45
  47  0.718  0.702  0.506-  58 1.38  52 1.43  48 1.47
  48  0.771  0.598  0.505-  46 1.45  43 1.45  47 1.47
  49  0.941  0.699  0.495-  50 1.43  13 1.43  46 1.44
  50  0.887  0.799  0.491-  49 1.43  52 1.43  53 1.44
  51  0.721  0.899  0.490-  36 1.43  52 1.43  33 1.43
  52  0.776  0.799  0.494-  50 1.43  51 1.43  47 1.43
  53  0.943  0.900  0.487-  34 1.43  17 1.43  50 1.44
  54  0.268  0.504  0.522-   9 1.38  12 1.39  59 1.89
  55  0.456  0.387  0.523-  28 1.38  25 1.39  59 1.87
  56  0.616  0.482  0.522-  28 1.37  43 1.38  60 1.96
  57  0.414  0.640  0.581-  29 1.34  59 1.80  60 1.85
  58  0.612  0.709  0.520-  47 1.38  30 1.39  60 1.97
  59  0.392  0.497  0.572-  57 1.80  55 1.87  54 1.89  60 2.37
  60  0.551  0.594  0.576-  57 1.85  56 1.96  58 1.97  59 2.37
 
  LATTYP: Found a triclinic cell.
 ALAT       =    17.7822263089
 B/A-ratio  =     0.6971118118
 C/A-ratio  =     1.1205852211
 COS(alpha) =     0.0012060222
 COS(beta)  =     0.0066200196
 COS(gamma) =     0.6905523787
  
  Lattice vectors:
  
 A1 = (  12.7496837402,  12.3956902601,   0.0000000000)
 A2 = (  -0.1124162598,  12.3956902601,   0.0000000000)
 A3 = (   0.1592133786,   0.0254766929,  19.9258476429)


Analysis of symmetry for initial positions (statically):
=====================================================================
 Subroutine PRICEL returns:
 Original cell was already a primitive cell.
 

 Routine SETGRP: Setting up the symmetry group for a 
 triclinic supercell.


 Subroutine GETGRP returns: Found  1 space group operations
 (whereof  1 operations were pure point group operations)
 out of a pool of  2 trial point group operations.


The static configuration has the point symmetry C_1 .


Analysis of symmetry for dynamics (positions and initial velocities):
=====================================================================
 Subroutine PRICEL returns:
 Original cell was already a primitive cell.
 

 Routine SETGRP: Setting up the symmetry group for a 
 triclinic supercell.


 Subroutine GETGRP returns: Found  1 space group operations
 (whereof  1 operations were pure point group operations)
 out of a pool of  2 trial point group operations.


The dynamic configuration has the point symmetry C_1 .


Analysis of structural, dynamic, and magnetic symmetry:
=====================================================================
 Subroutine PRICEL returns:
 Original cell was already a primitive cell.
 

 Routine SETGRP: Setting up the symmetry group for a 
 triclinic supercell.


 Subroutine GETGRP returns: Found  1 space group operations
 (whereof  1 operations were pure point group operations)
 out of a pool of  2 trial point group operations.


The magnetic configuration has the point symmetry C_1 .


 Subroutine INISYM returns: Found  1 space group operations
 (whereof  1 operations are pure point group operations),
 and found     1 'primitive' translations

 
 
 KPOINTS: KPOINTS created by Atomic Simulation Env

Automatic generation of k-mesh.
Space group operators:
 irot       det(A)        alpha          n_x          n_y          n_z        tau_x        tau_y        tau_z
    1     1.000000     0.000000     1.000000     0.000000     0.000000     0.000000     0.000000     0.000000
 
 Subroutine IBZKPT returns following result:
 ===========================================
 
 Found      2 irreducible k-points:
 
 Following reciprocal coordinates:
            Coordinates               Weight
  0.250000  0.250000  0.000000      2.000000
 -0.250000  0.250000  0.000000      2.000000
 
 Following cartesian coordinates:
            Coordinates               Weight
  0.019437  0.020345 -0.000181      2.000000
 -0.019437  0.019992  0.000130      2.000000
 
 
 Subroutine IBZKPT_HF returns following result:
 ==============================================
 
 Found      4 k-points in 1st BZ
 the following      4 k-points will be used (e.g. in the exchange kernel)
 Following reciprocal coordinates:   # in IRBZ
  0.250000  0.250000  0.000000    0.25000000   1 t-inv F
 -0.250000  0.250000  0.000000    0.25000000   2 t-inv F
 -0.250000 -0.250000  0.000000    0.25000000   1 t-inv T
  0.250000 -0.250000 -0.000000    0.25000000   2 t-inv T


--------------------------------------------------------------------------------------------------------




 Dimension of arrays:
   k-points           NKPTS =      2   k-points in BZ     NKDIM =      4   number of bands    NBANDS=    161
   number of dos      NEDOS =    301   number of ions     NIONS =     60
   non local maximal  LDIM  =      6   non local SUM 2l+1 LMDIM =     18
   total plane-waves  NPLWV = ******
   max r-space proj   IRMAX =      1   max aug-charges    IRDMAX=  15196
   dimension x,y,z NGX =    96 NGY =   90 NGZ =  150
   dimension x,y,z NGXF=   192 NGYF=  180 NGZF=  300
   support grid    NGXF=   192 NGYF=  180 NGZF=  300
   ions per type =              53   5   1   1
   NGX,Y,Z   is equivalent  to a cutoff of  12.41, 12.07, 12.51 a.u.
   NGXF,Y,Z  is equivalent  to a cutoff of  24.82, 24.14, 25.03 a.u.

 SYSTEM =  unknown system                          
 POSCAR =   C  N Fe Mn                             

 Startparameter for this run:
   NWRITE =      2    write-flag & timer
   PREC   = accura    normal or accurate (medium, high low for compatibility)
   ISTART =      0    job   : 0-new  1-cont  2-samecut
   ICHARG =      2    charge: 1-file 2-atom 10-const
   ISPIN  =      2    spin polarized calculation?
   LNONCOLLINEAR =      F non collinear calculations
   LSORBIT =      F    spin-orbit coupling
   INIWAV =      1    electr: 0-lowe 1-rand  2-diag
   LASPH  =      T    aspherical Exc in radial PAW
   METAGGA=      F    non-selfconsistent MetaGGA calc.

 Electronic Relaxation 1
   ENCUT  =  500.0 eV  36.75 Ry    6.06 a.u.  23.45 22.60 36.33*2*pi/ulx,y,z
   ENINI  =  500.0     initial cutoff
   ENAUG  =  644.9 eV  augmentation charge cutoff
   NELM   =    250;   NELMIN=  2; NELMDL=  0     # of ELM steps 
   EDIFF  = 0.1E-03   stopping-criterion for ELM
   LREAL  =      F    real-space projection
   NLSPLINE    = F    spline interpolate recip. space projectors
   LCOMPAT=      F    compatible to vasp.4.4
   GGA_COMPAT  = T    GGA compatible to vasp.4.4-vasp.4.6
   LMAXPAW     = -100 max onsite density
   LMAXMIX     =    2 max onsite mixed and CHGCAR
   VOSKOWN=      0    Vosko Wilk Nusair interpolation
   ROPT   =    0.00000   0.00000   0.00000   0.00000
 Ionic relaxation
   EDIFFG = -.3E-01   stopping-criterion for IOM
   NSW    =      0    number of steps for IOM
   NBLOCK =      1;   KBLOCK =      1    inner block; outer block 
   IBRION =     -1    ionic relax: 0-MD 1-quasi-New 2-CG
   NFREE  =      1    steps in history (QN), initial steepest desc. (CG)
   ISIF   =      2    stress and relaxation
   IWAVPR =     10    prediction:  0-non 1-charg 2-wave 3-comb
   ISYM   =      3    0-nonsym 1-usesym 2-fastsym
   LCORR  =      T    Harris-Foulkes like correction to forces

   POTIM  = 0.5000    time-step for ionic-motion
   TEIN   =    0.0    initial temperature
   TEBEG  =    0.0;   TEEND  =   0.0 temperature during run
   SMASS  =  -3.00    Nose mass-parameter (am)
   estimated Nose-frequenzy (Omega)   =  0.10E-29 period in steps =****** mass=  -0.378E-26a.u.
   SCALEE = 1.0000    scale energy and forces
   NPACO  =    256;   APACO  = 16.0  distance and # of slots for P.C.
   PSTRESS=    0.0 pullay stress

  Mass of Ions in am
   POMASS =  12.01 14.00 55.85 54.94
  Ionic Valenz
   ZVAL   =   4.00  5.00  8.00  7.00
  Atomic Wigner-Seitz radii
   RWIGS  =  -1.00 -1.00 -1.00 -1.00
  virtual crystal weights 
   VCA    =   1.00  1.00  1.00  1.00
   NELECT =     252.0000    total number of electrons
   NUPDOWN=      -1.0000    fix difference up-down

 DOS related values:
   EMIN   =  10.00;   EMAX   =-10.00  energy-range for DOS
   EFERMI =   0.00
   ISMEAR =     0;   SIGMA  =   0.10  broadening in eV -4-tet -1-fermi 0-gaus

 Electronic relaxation 2 (details)
   IALGO  =     53    algorithm
   LDIAG  =      T    sub-space diagonalisation (order eigenvalues)
   LSUBROT=      F    optimize rotation matrix (better conditioning)
   TURBO    =      0    0=normal 1=particle mesh
   IRESTART =      0    0=no restart 2=restart with 2 vectors
   NREBOOT  =      0    no. of reboots
   NMIN     =      0    reboot dimension
   EREF     =   0.00    reference energy to select bands
   IMIX   =      4    mixing-type and parameters
     AMIX     =   0.40;   BMIX     =  1.00
     AMIX_MAG =   1.60;   BMIX_MAG =  1.00
     AMIN     =   0.10
     WC   =   100.;   INIMIX=   1;  MIXPRE=   1;  MAXMIX= -45

 Intra band minimization:
   WEIMIN = 0.0000     energy-eigenvalue tresh-hold
   EBREAK =  0.16E-06  absolut break condition
   DEPER  =   0.30     relativ break condition  

   TIME   =   0.20     timestep for ELM

  volume/ion in A,a.u.               =      52.95       357.31
  Fermi-wavevector in a.u.,A,eV,Ry     =   0.703410  1.329252  6.731967  0.494786
  Thomas-Fermi vector in A             =   1.788373
 
 Write flags
   LWAVE        =      T    write WAVECAR
   LDOWNSAMPLE  =      F    k-point downsampling of WAVECAR
   LCHARG       =      T    write CHGCAR
   LVTOT        =      F    write LOCPOT, total local potential
   LVHAR        =      F    write LOCPOT, Hartree potential only
   LELF         =      F    write electronic localiz. function (ELF)
   LORBIT       =     11    0 simple, 1 ext, 2 COOP (PROOUT), +10 PAW based schemes


 Dipole corrections
   LMONO  =      F    monopole corrections only (constant potential shift)
   LDIPOL =      T    correct potential (dipole corrections)
   IDIPOL =      3    1-x, 2-y, 3-z, 4-all directions 
   EPSILON=  1.0000000 bulk dielectric constant

 Exchange correlation treatment:
   GGA     =    PE    GGA type
   LEXCH   =     8    internal setting for exchange type
   VOSKOWN=      0    Vosko Wilk Nusair interpolation
   EXXOEP  =     0    0=HF, 1=EXX-LHF (local Hartree Fock) 2=EXX OEP
   LHFCALC =     T    Hartree Fock is set to
   LSYMGRAD=     F    symmetrize gradient (conserves proper symmetry)
   PRECFOCK=normal    Normal, Fast or Accurate (Low or Medium for compatibility)
   LRHFCALC=     F    long range Hartree Fock
   LRSCOR  =     F    long range correlation only (use DFT for short range part)
   LTHOMAS =     F    Thomas Fermi screening in HF
   LMODELHF=     F    short range full HF, long range fraction AEXX
   ENCUT4O =  -1.0   cutoff for four orbital integrals eV
   LMAXFOCK=     4    L truncation for augmentation on plane wave grid
   LMAXFOCKAE=  -1    L truncation for all-electron charge restoration on plane wave grid
   NMAXFOCKAE=   1    number of basis functions for all-electron charge restoration
   LFOCKAEDFT=     F  apply the AE augmentation even for DFT
   NKREDX  =     1    reduce k-point grid by
   NKREDY  =     1    reduce k-point grid by
   NKREDZ  =     1    reduce k-point grid by
   SHIFTRED=     F    shift reduced grid of Gamma
   HFKIDENT=     F    idential grid for each k-point
   ODDONLY =     F    use only odd q-grid points
   EVENONLY=     F    use only even q-grid points
   HFALPHA =   -1.0000 decay constant for conv. correction
   MCALPHA =    0.0000 extent of test-charge in conv. correction in multipole expansion
   AEXX    =    0.2500 exact exchange contribution
   HFSCREEN=    0.2000 screening length (either q_TF or 0.3 A-1)
   HFSCREENC=   0.2000 screening length for correlation (either q_TF or 0.3 A-1)
   HFRCUT  =    0.0000 spherical cutoff for potential kernel
   ALDAX   =    0.7500 LDA exchange part
   AGGAX   =    0.7500 GGA exchange part
   ALDAC   =    1.0000 LDA correlation
   AGGAC   =    1.0000 GGA correlation
   ENCUTFOCK=  -1.0 apply spherical cutoff to Coloumb kernel
   NBANDSGWLOW=     1    first orbital included in HF term
   NBLOCK_FOCK=    64    blocking factor in FOCK_ACC
 Linear response parameters
   LEPSILON=     F    determine dielectric tensor
   LRPA    =     F    only Hartree local field effects (RPA)
   LNABLA  =     F    use nabla operator in PAW spheres
   LVEL    =     F    velocity operator in full k-point grid
   LINTERFAST=   F  fast interpolation
   KINTER  =     0    interpolate to denser k-point grid
   CSHIFT  =0.1000    complex shift for real part using Kramers Kronig
   OMEGAMAX=  -1.0    maximum frequency
   DEG_THRESHOLD= 0.2000000E-02 threshold for treating states as degnerate
   RTIME   =   -0.100 relaxation time in fs
  (WPLASMAI=    0.000 imaginary part of plasma frequency in eV, 0.658/RTIME)
   DFIELD  = 0.0000000 0.0000000 0.0000000 field for delta impulse in time
 
 Orbital magnetization related:
   ORBITALMAG=     F  switch on orbital magnetization
   LCHIMAG   =     F  perturbation theory with respect to B field
   DQ        =  0.001000  dq finite difference perturbation B field
   LLRAUG    =     F  two centre corrections for induced B field



--------------------------------------------------------------------------------------------------------


 Static calculation
 charge density and potential will be updated during run
 spin polarized calculation
 Conjugate gradient for all bands (Freysoldt, et al. PRB 79, 241103 (2009))
 perform sub-space diagonalisation
    before iterative eigenvector-optimisation
 modified Broyden-mixing scheme, WC =      100.0
 initial mixing is a Kerker type mixing with AMIX =  0.4000 and BMIX =      1.0000
 Hartree-type preconditioning will be used
 using additional bands           35
 reciprocal scheme for non local part
 use partial core corrections
 no Harris-corrections to forces 
 use gradient corrections 
 use of overlap-Matrix (Vanderbilt PP)
 Gauss-broadening in eV      SIGMA  =   0.10


--------------------------------------------------------------------------------------------------------


  energy-cutoff  :      500.00
  volume of cell :     3176.87
      direct lattice vectors                 reciprocal lattice vectors
    12.862100000  0.000000000  0.000000000     0.077747802  0.000705093 -0.000622129
    -0.112416260 12.395690260  0.000000000     0.000000000  0.080673200 -0.000103147
     0.159213379  0.025476693 19.925847643     0.000000000  0.000000000  0.050186071

  length of vectors
    12.862100000 12.396200000 19.926500000     0.077753488  0.080673266  0.050186071


 
 k-points in units of 2pi/SCALE and weight: KPOINTS created by Atomic Simulation Env
   0.01943695  0.02034457 -0.00018132       0.500
  -0.01943695  0.01999203  0.00012975       0.500
 
 k-points in reciprocal lattice and weights: KPOINTS created by Atomic Simulation Env
   0.25000000  0.25000000  0.00000000       0.500
  -0.25000000  0.25000000  0.00000000       0.500
 
 position of ions in fractional coordinates (direct lattice) 
   0.22207790  0.00135297  0.49203587
   0.05728330  0.10132209  0.48690942
   0.11106171  0.00087887  0.48894819
   0.27806977  0.10226420  0.49218272
   0.22495045  0.20429011  0.49507353
   0.05699913  0.30129419  0.49115898
   0.11317912  0.20221371  0.49069683
   0.28161158  0.30492043  0.50404357
   0.22165783  0.40581231  0.50776688
   0.05338676  0.50129492  0.49795175
   0.11089106  0.40228851  0.49793741
   0.21739209  0.60140370  0.51327235
   0.05246659  0.70054229  0.49597775
   0.10798511  0.60155616  0.50128219
   0.27232754  0.70363964  0.51577216
   0.21926549  0.80121570  0.50073054
   0.05463638  0.90062110  0.48899403
   0.10859177  0.80077925  0.49406667
   0.27639440  0.90148799  0.49755427
   0.55472122  0.99873006  0.48819788
   0.38862213  0.09989825  0.49004832
   0.44378367  0.99992848  0.49086066
   0.61170467  0.09751300  0.48365215
   0.55671698  0.19618724  0.48750315
   0.39471831  0.29876562  0.50521148
   0.44583207  0.19883103  0.49205923
   0.61421591  0.29383713  0.49163630
   0.56160224  0.38823029  0.51059809
   0.37911044  0.71296363  0.53726862
   0.55555636  0.80245787  0.51012015
   0.38804970  0.90073202  0.49969450
   0.44281579  0.80379469  0.51507142
   0.60998927  0.89997531  0.49410820
   0.88928967  0.99952762  0.48382091
   0.72291814  0.09818456  0.48199257
   0.77788429  0.99872774  0.48373746
   0.94594970  0.10000257  0.48367449
   0.89076632  0.19943668  0.48359462
   0.72458031  0.29645708  0.48794204
   0.77958517  0.19792632  0.48263736
   0.94572816  0.30021341  0.48745641
   0.88930461  0.39934261  0.49093177
   0.72050234  0.49287901  0.50641057
   0.77857748  0.39719751  0.49329021
   0.94207462  0.50049705  0.49527995
   0.88391769  0.59931115  0.49796231
   0.71756309  0.70192769  0.50629202
   0.77143932  0.59813543  0.50485864
   0.94098092  0.69928637  0.49462457
   0.88694102  0.79936685  0.49102617
   0.72126323  0.89945653  0.49005007
   0.77573131  0.79948579  0.49447653
   0.94339295  0.89958746  0.48698652
   0.26838976  0.50425238  0.52169911
   0.45585983  0.38735335  0.52265289
   0.61617321  0.48187924  0.52213117
   0.41399817  0.63985505  0.58123786
   0.61209732  0.70910769  0.51979111
   0.39168515  0.49670921  0.57222189
   0.55068951  0.59412089  0.57644549
 
 position of ions in cartesian coordinates  (Angst):
   2.93457475  0.02930644  9.80423179
   0.80291574  1.26836212  9.70208302
   1.50623508  0.02335098  9.74270720
   3.64342709  1.28017453  9.80715799
   2.94919195  2.54492975  9.86475964
   0.77745723  3.74726262  9.78675892
   1.51111458  2.51907979  9.77755018
   3.66808878  3.79254056 10.04349528
   2.88620854  5.04325995 10.11768543
   0.70959279  6.22658270  9.92211061
   1.46034645  4.99932961  9.92182489
   2.81023109  7.46789050 10.22738674
   0.67504443  8.69634107  9.88277706
   1.40110139  7.46947483  9.98847254
   3.50572131  8.73523921 10.27719754
   2.80986797  9.94437859  9.97748054
   0.67934858 11.17627818  9.74362064
   1.38535958  9.93879876  9.84469725
   3.53288777 11.18724197  9.91419054
   7.10033390 12.39238618  9.72775658
   5.06528878  1.25079256  9.76462806
   5.67373335 12.40730918  9.78081481
   7.93384847  1.22106286  9.63717914
   7.21611186  2.44429628  9.71391358
   5.12375667  3.71627719 10.06676690
   5.79032718  2.47718385  9.80469716
   7.94534945  3.65483931  9.79627005
   7.26103482  4.82539075 10.17409972
   4.88154801  8.85136412 10.70553272
   7.13663008  9.96001537 10.16457640
   4.96943516 11.17792575  9.95683639
   5.68718762  9.97671238 10.26323471
   7.82323974 11.16840337  9.84552471
  11.40280026 12.40216091  9.64054180
   9.36394756  1.22934501  9.60411048
   9.96996976 12.39224369  9.63887902
  12.23266518  1.25192332  9.63762428
  11.51170026  2.48447576  9.63603279
   9.36398472  3.68722128  9.72265870
  10.08169456  2.46572934  9.61695846
  12.20791087  3.73377117  9.71298207
  11.47159513  4.96263465  9.78223175
   9.29239286  6.12247716 10.09065987
  10.04802840  4.93610473  9.82922558
  12.13964922  6.21662456  9.86887279
  11.38094768  7.44156178  9.92232112
   9.23106854  8.71377684 10.08829775
   9.93546972  7.42716366 10.05973642
  12.10313037  8.68073865  9.85581380
  11.39624014  9.92121358  9.78411272
   9.25386879 11.16186942  9.76466301
   9.96638577  9.92277585  9.85286402
  12.11042093 11.16341434  9.70361913
   3.47843130  6.26384743 10.39529702
   5.90298329  4.81482759 10.41430194
   7.95424067  5.98652798 10.40390613
   5.34549657  7.94625306 11.58165702
   7.87589941  8.80312180 10.35727847
   5.07316076  6.17163184 11.40200626
   7.10801249  7.37922447 11.48616504
 


--------------------------------------------------------------------------------------------------------


 k-point  1 :   0.2500 0.2500 0.0000  plane waves:   80661
 k-point  2 :  -0.2500 0.2500 0.0000  plane waves:   80671

 maximum and minimum number of plane-waves per node :      5069     5016

 maximum number of plane-waves:     80671
 maximum index in each direction: 
   IXMAX=   23   IYMAX=   22   IZMAX=   36
   IXMIN=  -23   IYMIN=  -22   IZMIN=  -36


 parallel 3D FFT for wavefunctions:
    minimum data exchange during FFTs selected (reduces bandwidth)
 parallel 3D FFT for charge:
    minimum data exchange during FFTs selected (reduces bandwidth)


 FFT grid for exact exchange (Hartree Fock) 
  NGX = 72; NGY = 70; NGZ =112

 
 Radii for the augmentation spheres in the non-local exchange
 for species   1 augmentation radius   0.874 (default was   0.699)
       energy cutoff for augmentation   2000.0
 for species   2 augmentation radius   0.886 (default was   0.709)
       energy cutoff for augmentation   2000.0
 for species   3 augmentation radius   1.263 (default was   1.010)
       energy cutoff for augmentation   2000.0
 for species   4 augmentation radius   1.276 (default was   1.021)
       energy cutoff for augmentation   2000.0

 real space projection operators:
  total allocation   :       2606.90 KBytes
  max/ min on nodes  :        188.41        134.28

 Maximum index for augmentation-charges in exchange          112
  SETUP_FOCK is finished

 total amount of memory used by VASP MPI-rank0   296547. kBytes
=======================================================================

   base      :      30000. kBytes
   nonl-proj :      10722. kBytes
   fftplans  :      26523. kBytes
   grid      :      69087. kBytes
   one-center:        124. kBytes
   HF        :         23. kBytes
   nonlr-proj:       1830. kBytes
   wavefun   :     158238. kBytes
 
     INWAV:  cpu time    0.0000: real time    0.0002
 Broyden mixing: mesh for mixing (old mesh)
   NGX = 47   NGY = 45   NGZ = 73
  (NGX  =192   NGY  =180   NGZ  =300)
  gives a total of 154395 points

 initial charge density was supplied:
 charge density of overlapping atoms calculated
 number of electron     252.0000000 magnetization       7.0000000
 charge density for first step will be calculated from the start-wavefunctions


--------------------------------------------------------------------------------------------------------


 Maximum index for augmentation-charges         1021 (set IRDMAX)


--------------------------------------------------------------------------------------------------------


 First call to EWALD:  gamma=   0.121
 Maximum number of real-space cells 3x 3x 2
 Maximum number of reciprocal cells 2x 2x 4

    FEWALD:  cpu time    0.0033: real time    0.0033


--------------------------------------- Iteration      1(   1)  ---------------------------------------


    POTLOK:  cpu time    6.4594: real time    6.4730
    SETDIJ:  cpu time    3.2085: real time    3.2121
    TRIAL :  cpu time   15.5812: real time   15.6478
    CORREC:  cpu time    0.0072: real time    0.0072
    --------------------------------------------
      LOOP:  cpu time   25.3109: real time   25.3973

 eigenvalue-minimisations  :  1900
 total energy-change (2. order) : 0.4260782E+04  (-0.7288266E+04)
 number of electron     252.0000000 magnetization       7.0000000
 augmentation part      252.0000000 magnetization       7.0000000

 DIPCOR: dipole corrections for dipol
 direction  3 min pos     1,
 dipolmoment           0.000000      0.000000      0.000005 electrons x Angstroem
 Tr[quadrupol]     -6946.508265

 energy correction for charged system         0.000000 eV
 dipol+quadrupol energy correction            0.000000 eV
 added-field ion interaction          0.000000 eV  (added to PSCEN)


 Free energy of the ion-electron system (eV)
  ---------------------------------------------------
  alpha Z        PSCENC =       107.99478579
  Ewald energy   TEWEN  =     40462.31378834
  -Hartree energ DENC   =    -48161.31655690
  -exchange      EXHF   =         0.00000000
  -V(xc)+E(xc)   XCENC  =       605.38036246
  PAW double counting   =      7883.18049768    -7903.34035223
  entropy T*S    EENTRO =        -0.08124384
  eigenvalues    EBANDS =      1251.83081873
  atomic energy  EATOM  =     10014.81987051
  ---------------------------------------------------
  free energy    TOTEN  =      4260.78197054 eV

  energy without entropy =     4260.86321439  energy(sigma->0) =     4260.82259246
  exchange ACFDT corr.  =         0.00000000  see jH, gK, PRB 81, 115126


--------------------------------------------------------------------------------------------------------




--------------------------------------- Iteration      1(   2)  ---------------------------------------


    TRIAL :  cpu time   20.4149: real time   20.4593
    CORREC:  cpu time    0.0066: real time    0.0066
    --------------------------------------------
      LOOP:  cpu time   20.5574: real time   20.6023

 eigenvalue-minimisations  :  2576
 total energy-change (2. order) :-0.2202685E+04  (-0.2035645E+04)
 number of electron     252.0000000 magnetization       7.0000000
 augmentation part      252.0000000 magnetization       7.0000000

 DIPCOR: dipole corrections for dipol
 direction  3 min pos     1,
 dipolmoment           0.000000      0.000000      0.000005 electrons x Angstroem
 Tr[quadrupol]     -6946.508265

 energy correction for charged system         0.000000 eV
 dipol+quadrupol energy correction            0.000000 eV
 added-field ion interaction          0.000000 eV  (added to PSCEN)


 Free energy of the ion-electron system (eV)
  ---------------------------------------------------
  alpha Z        PSCENC =       107.99478579
  Ewald energy   TEWEN  =     40462.31378834
  -Hartree energ DENC   =    -48161.31655690
  -exchange      EXHF   =         0.00000000
  -V(xc)+E(xc)   XCENC  =       605.38036246
  PAW double counting   =      7883.18049768    -7903.34035223
  entropy T*S    EENTRO =        -0.10452062
  eigenvalues    EBANDS =      -950.83064594
  atomic energy  EATOM  =     10014.81987051
  ---------------------------------------------------
  free energy    TOTEN  =      2058.09722910 eV

  energy without entropy =     2058.20174972  energy(sigma->0) =     2058.14948941
  exchange ACFDT corr.  =         0.00000000  see jH, gK, PRB 81, 115126


--------------------------------------------------------------------------------------------------------




--------------------------------------- Iteration      1(   3)  ---------------------------------------


    TRIAL :  cpu time   20.2912: real time   20.3324
    CORREC:  cpu time    0.0050: real time    0.0050
    --------------------------------------------
      LOOP:  cpu time   20.3222: real time   20.3649

 eigenvalue-minimisations  :  2576
 total energy-change (2. order) :-0.1203547E+04  (-0.1110048E+04)
 number of electron     252.0000000 magnetization       7.0000000
 augmentation part      252.0000000 magnetization       7.0000000

 DIPCOR: dipole corrections for dipol
 direction  3 min pos     1,
 dipolmoment           0.000000      0.000000      0.000005 electrons x Angstroem
 Tr[quadrupol]     -6946.508265

 energy correction for charged system         0.000000 eV
 dipol+quadrupol energy correction            0.000000 eV
 added-field ion interaction          0.000000 eV  (added to PSCEN)


 Free energy of the ion-electron system (eV)
  ---------------------------------------------------
  alpha Z        PSCENC =       107.99478579
  Ewald energy   TEWEN  =     40462.31378834
  -Hartree energ DENC   =    -48161.31655690
  -exchange      EXHF   =         0.00000000
  -V(xc)+E(xc)   XCENC  =       605.38036246
  PAW double counting   =      7883.18049768    -7903.34035223
  entropy T*S    EENTRO =        -0.10585814
  eigenvalues    EBANDS =     -2154.37670672
  atomic energy  EATOM  =     10014.81987051
  ---------------------------------------------------
  free energy    TOTEN  =       854.54983079 eV

  energy without entropy =      854.65568893  energy(sigma->0) =      854.60275986
  exchange ACFDT corr.  =         0.00000000  see jH, gK, PRB 81, 115126


--------------------------------------------------------------------------------------------------------




--------------------------------------- Iteration      1(   4)  ---------------------------------------


    TRIAL :  cpu time   20.3515: real time   20.3912
    CORREC:  cpu time    0.0065: real time    0.0065
    --------------------------------------------
      LOOP:  cpu time   20.4981: real time   20.5378

 eigenvalue-minimisations  :  2576
 total energy-change (2. order) :-0.5313583E+03  (-0.4992956E+03)
 number of electron     252.0000000 magnetization       7.0000000
 augmentation part      252.0000000 magnetization       7.0000000

 DIPCOR: dipole corrections for dipol
 direction  3 min pos     1,
 dipolmoment           0.000000      0.000000      0.000005 electrons x Angstroem
 Tr[quadrupol]     -6946.508265

 energy correction for charged system         0.000000 eV
 dipol+quadrupol energy correction            0.000000 eV
 added-field ion interaction          0.000000 eV  (added to PSCEN)


 Free energy of the ion-electron system (eV)
  ---------------------------------------------------
  alpha Z        PSCENC =       107.99478579
  Ewald energy   TEWEN  =     40462.31378834
  -Hartree energ DENC   =    -48161.31655690
  -exchange      EXHF   =         0.00000000
  -V(xc)+E(xc)   XCENC  =       605.38036246
  PAW double counting   =      7883.18049768    -7903.34035223
  entropy T*S    EENTRO =        -0.07931269
  eigenvalues    EBANDS =     -2685.76159923
  atomic energy  EATOM  =     10014.81987051
  ---------------------------------------------------
  free energy    TOTEN  =       323.19148374 eV

  energy without entropy =      323.27079643  energy(sigma->0) =      323.23114008
  exchange ACFDT corr.  =         0.00000000  see jH, gK, PRB 81, 115126


--------------------------------------------------------------------------------------------------------




--------------------------------------- Iteration      1(   5)  ---------------------------------------


    TRIAL :  cpu time   20.4736: real time   20.5133
    CORREC:  cpu time    0.0011: real time    0.0011
    CHARGE:  cpu time    1.6687: real time    1.6723
    --------------------------------------------
      LOOP:  cpu time   22.2438: real time   22.2872

 eigenvalue-minimisations  :  2576
 total energy-change (2. order) :-0.2456504E+03  (-0.2320786E+03)
 number of electron     252.0000014 magnetization       5.3353480
 augmentation part       12.9314313 magnetization       3.1207704

 DIPCOR: dipole corrections for dipol
 direction  3 min pos     1,
 dipolmoment           0.000000      0.000000      0.000005 electrons x Angstroem
 Tr[quadrupol]     -6946.508265

 energy correction for charged system         0.000000 eV
 dipol+quadrupol energy correction            0.000000 eV
 added-field ion interaction          0.000000 eV  (added to PSCEN)


 Free energy of the ion-electron system (eV)
  ---------------------------------------------------
  alpha Z        PSCENC =       107.99478579
  Ewald energy   TEWEN  =     40462.31378834
  -Hartree energ DENC   =    -48161.31655690
  -exchange      EXHF   =         0.00000000
  -V(xc)+E(xc)   XCENC  =       605.38036246
  PAW double counting   =      7883.18049768    -7903.34035223
  entropy T*S    EENTRO =        -0.03807637
  eigenvalues    EBANDS =     -2931.45323189
  atomic energy  EATOM  =     10014.81987051
  ---------------------------------------------------
  free energy    TOTEN  =        77.54108740 eV

  energy without entropy =       77.57916377  energy(sigma->0) =       77.56012558
  exchange ACFDT corr.  =         0.00000000  see jH, gK, PRB 81, 115126


--------------------------------------------------------------------------------------------------------




--------------------------------------- Iteration      1(   6)  ---------------------------------------


    POTLOK:  cpu time    6.5092: real time    6.5178
    SETDIJ:  cpu time    3.2034: real time    3.2052
    TRIAL :  cpu time  622.0692: real time  623.2814
    CORREC:  cpu time    0.0045: real time    0.0045
    CHARGE:  cpu time    1.6588: real time    1.6617
    --------------------------------------------
      LOOP:  cpu time  633.4519: real time  634.6792

 eigenvalue-minimisations  :     0
 total energy-change (2. order) :-0.4769965E+03  (-0.2900186E+03)
 number of electron     252.0000014 magnetization       4.2165134
 augmentation part       14.6154734 magnetization       2.9569592

 DIPCOR: dipole corrections for dipol
 direction  3 min pos     1,
 dipolmoment           0.003489      0.000558      0.436636 electrons x Angstroem
 Tr[quadrupol]     -6696.398300

 energy correction for charged system         0.000000 eV
 dipol+quadrupol energy correction            0.005452 eV
 added-field ion interaction          0.000000 eV  (added to PSCEN)


 Free energy of the ion-electron system (eV)
  ---------------------------------------------------
  alpha Z        PSCENC =       108.00023809
  Ewald energy   TEWEN  =     40462.31378834
  -Hartree energ DENC   =    -45624.08341962
  -exchange      EXHF   =       530.96816377
  -V(xc)+E(xc)   XCENC  =       604.26153271
  PAW double counting   =     27287.26214806   -27306.54789169
  entropy T*S    EENTRO =        -0.03228060
  eigenvalues    EBANDS =     -6476.41179336
  atomic energy  EATOM  =     10014.81987051
  ---------------------------------------------------
  free energy    TOTEN  =      -399.45543955 eV

  energy without entropy =     -399.42315895  energy(sigma->0) =     -399.43929925
  exchange ACFDT corr.  =        -0.03948166  see jH, gK, PRB 81, 115126


--------------------------------------------------------------------------------------------------------




--------------------------------------- Iteration      1(   7)  ---------------------------------------


    POTLOK:  cpu time    6.5296: real time    6.5364
    SETDIJ:  cpu time    3.2026: real time    3.2062
    TRIAL :  cpu time  621.2867: real time  622.5053
    CORREC:  cpu time    0.0035: real time    0.0035
    CHARGE:  cpu time    1.6691: real time    1.6720
    --------------------------------------------
      LOOP:  cpu time  632.6988: real time  633.9326

 eigenvalue-minimisations  :     0
 total energy-change (2. order) :-0.1357695E+03  (-0.8408497E+02)
 number of electron     252.0000013 magnetization       4.9496275
 augmentation part       13.7865707 magnetization       3.4162275

 DIPCOR: dipole corrections for dipol
 direction  3 min pos     1,
 dipolmoment           0.009525      0.001524      1.192020 electrons x Angstroem
 Tr[quadrupol]     -6912.510963

 energy correction for charged system         0.000000 eV
 dipol+quadrupol energy correction            0.040636 eV
 added-field ion interaction          0.000000 eV  (added to PSCEN)


 Free energy of the ion-electron system (eV)
  ---------------------------------------------------
  alpha Z        PSCENC =       108.03542139
  Ewald energy   TEWEN  =     40462.31378834
  -Hartree energ DENC   =    -48519.94634636
  -exchange      EXHF   =       558.28510693
  -V(xc)+E(xc)   XCENC  =       626.27061594
  PAW double counting   =     28393.56387933   -28433.61535069
  entropy T*S    EENTRO =        -0.03213445
  eigenvalues    EBANDS =     -3744.91966095
  atomic energy  EATOM  =     10014.81987051
  ---------------------------------------------------
  free energy    TOTEN  =      -535.22495614 eV

  energy without entropy =     -535.19282169  energy(sigma->0) =     -535.20888891
  exchange ACFDT corr.  =        -2.99278417  see jH, gK, PRB 81, 115126


--------------------------------------------------------------------------------------------------------




--------------------------------------- Iteration      1(   8)  ---------------------------------------


    POTLOK:  cpu time    6.5332: real time    6.5426
    SETDIJ:  cpu time    3.2025: real time    3.2050
    TRIAL :  cpu time  617.5700: real time  618.8246
    CORREC:  cpu time    0.0051: real time    0.0051
    CHARGE:  cpu time    1.7499: real time    1.7532
    --------------------------------------------
      LOOP:  cpu time  629.0682: real time  630.3412

 eigenvalue-minimisations  :     0
 total energy-change (2. order) :-0.4152033E+02  (-0.2935106E+02)
 number of electron     252.0000013 magnetization       5.0220453
 augmentation part       13.4484655 magnetization       3.4840915

 DIPCOR: dipole corrections for dipol
 direction  3 min pos     1,
 dipolmoment          -0.003905     -0.000625     -0.488725 electrons x Angstroem
 Tr[quadrupol]     -6931.257059

 energy correction for charged system         0.000000 eV
 dipol+quadrupol energy correction            0.006831 eV
 added-field ion interaction          0.000000 eV  (added to PSCEN)


 Free energy of the ion-electron system (eV)
  ---------------------------------------------------
  alpha Z        PSCENC =       108.00161656
  Ewald energy   TEWEN  =     40462.31378834
  -Hartree energ DENC   =    -48790.75757058
  -exchange      EXHF   =       563.05743286
  -V(xc)+E(xc)   XCENC  =       628.32076559
  PAW double counting   =     28244.54841853   -28271.45288356
  entropy T*S    EENTRO =        -0.01756650
  eigenvalues    EBANDS =     -3535.56459470
  atomic energy  EATOM  =     10014.81987051
  ---------------------------------------------------
  free energy    TOTEN  =      -576.74529091 eV

  energy without entropy =     -576.72772441  energy(sigma->0) =     -576.73650766
  exchange ACFDT corr.  =        -2.29728870  see jH, gK, PRB 81, 115126


--------------------------------------------------------------------------------------------------------




--------------------------------------- Iteration      1(   9)  ---------------------------------------


    POTLOK:  cpu time    6.5318: real time    6.5403
    SETDIJ:  cpu time    3.1993: real time    3.2020
    TRIAL :  cpu time  616.0385: real time  617.3333
    CORREC:  cpu time    0.0039: real time    0.0039
    CHARGE:  cpu time    1.7416: real time    1.7439
    --------------------------------------------
      LOOP:  cpu time  627.5206: real time  628.8339

 eigenvalue-minimisations  :     0
 total energy-change (2. order) :-0.1785376E+02  (-0.1991360E+02)
 number of electron     252.0000013 magnetization       5.0121619
 augmentation part       13.6402548 magnetization       3.5925052

 DIPCOR: dipole corrections for dipol
 direction  3 min pos     1,
 dipolmoment          -0.006478     -0.001037     -0.810693 electrons x Angstroem
 Tr[quadrupol]     -6932.382836

 energy correction for charged system         0.000000 eV
 dipol+quadrupol energy correction            0.018795 eV
 added-field ion interaction          0.000000 eV  (added to PSCEN)


 Free energy of the ion-electron system (eV)
  ---------------------------------------------------
  alpha Z        PSCENC =       108.01358123
  Ewald energy   TEWEN  =     40462.31378834
  -Hartree energ DENC   =    -48788.75333575
  -exchange      EXHF   =       564.22907962
  -V(xc)+E(xc)   XCENC  =       627.85932201
  PAW double counting   =     28097.19173635   -28122.27844276
  entropy T*S    EENTRO =        -0.01352923
  eigenvalues    EBANDS =     -3557.97708415
  atomic energy  EATOM  =     10014.81987051
  ---------------------------------------------------
  free energy    TOTEN  =      -594.59905109 eV

  energy without entropy =     -594.58552186  energy(sigma->0) =     -594.59228647
  exchange ACFDT corr.  =        -1.57153225  see jH, gK, PRB 81, 115126


--------------------------------------------------------------------------------------------------------




--------------------------------------- Iteration      1(  10)  ---------------------------------------


    POTLOK:  cpu time    6.5262: real time    6.5368
    SETDIJ:  cpu time    3.2046: real time    3.2064
    TRIAL :  cpu time  613.4723: real time  614.6859
    CORREC:  cpu time    0.0044: real time    0.0044
    CHARGE:  cpu time    1.6995: real time    1.7041
    --------------------------------------------
      LOOP:  cpu time  624.9146: real time  626.1494

 eigenvalue-minimisations  :     0
 total energy-change (2. order) :-0.1399986E+02  (-0.1150901E+02)
 number of electron     252.0000013 magnetization       5.1520703
 augmentation part       13.6628027 magnetization       3.7139239

 DIPCOR: dipole corrections for dipol
 direction  3 min pos     1,
 dipolmoment          -0.002795     -0.000447     -0.349770 electrons x Angstroem
 Tr[quadrupol]     -6945.485046

 energy correction for charged system         0.000000 eV
 dipol+quadrupol energy correction            0.003499 eV
 added-field ion interaction          0.000000 eV  (added to PSCEN)


 Free energy of the ion-electron system (eV)
  ---------------------------------------------------
  alpha Z        PSCENC =       107.99828449
  Ewald energy   TEWEN  =     40462.31378834
  -Hartree energ DENC   =    -48920.21909680
  -exchange      EXHF   =       565.89695192
  -V(xc)+E(xc)   XCENC  =       628.25619259
  PAW double counting   =     28059.24085702   -28087.98366530
  entropy T*S    EENTRO =        -0.02219699
  eigenvalues    EBANDS =     -3438.90856666
  atomic energy  EATOM  =     10014.81987051
  ---------------------------------------------------
  free energy    TOTEN  =      -608.59891314 eV

  energy without entropy =     -608.57671615  energy(sigma->0) =     -608.58781465
  exchange ACFDT corr.  =        -2.01633617  see jH, gK, PRB 81, 115126


--------------------------------------------------------------------------------------------------------




--------------------------------------- Iteration      1(  11)  ---------------------------------------


    POTLOK:  cpu time    6.5242: real time    6.5321
    SETDIJ:  cpu time    3.2169: real time    3.2202
    TRIAL :  cpu time  614.3441: real time  615.6420
    CORREC:  cpu time    0.0064: real time    0.0064
    CHARGE:  cpu time    1.6921: real time    1.6956
    --------------------------------------------
      LOOP:  cpu time  625.7902: real time  627.1076

 eigenvalue-minimisations  :     0
 total energy-change (2. order) :-0.7808566E+01  (-0.6129391E+01)
 number of electron     252.0000013 magnetization       5.6350928
 augmentation part       13.5179855 magnetization       3.8214440

 DIPCOR: dipole corrections for dipol
 direction  3 min pos     1,
 dipolmoment          -0.000793     -0.000127     -0.099189 electrons x Angstroem
 Tr[quadrupol]     -6953.934073

 energy correction for charged system         0.000000 eV
 dipol+quadrupol energy correction            0.000281 eV
 added-field ion interaction          0.000000 eV  (added to PSCEN)


 Free energy of the ion-electron system (eV)
  ---------------------------------------------------
  alpha Z        PSCENC =       107.99506716
  Ewald energy   TEWEN  =     40462.31378834
  -Hartree energ DENC   =    -48996.46988270
  -exchange      EXHF   =       566.99287375
  -V(xc)+E(xc)   XCENC  =       628.42604488
  PAW double counting   =     28007.94889330   -28037.11203344
  entropy T*S    EENTRO =        -0.02777528
  eigenvalues    EBANDS =     -3371.29990398
  atomic energy  EATOM  =     10014.81987051
  ---------------------------------------------------
  free energy    TOTEN  =      -616.40747917 eV

  energy without entropy =     -616.37970389  energy(sigma->0) =     -616.39359153
  exchange ACFDT corr.  =        -1.72684937  see jH, gK, PRB 81, 115126


--------------------------------------------------------------------------------------------------------




--------------------------------------- Iteration      1(  12)  ---------------------------------------


    POTLOK:  cpu time    6.5167: real time    6.5261
    SETDIJ:  cpu time    3.2341: real time    3.2363
    TRIAL :  cpu time  612.9745: real time  614.2337
    CORREC:  cpu time    0.0059: real time    0.0059
    CHARGE:  cpu time    1.6481: real time    1.6509
    --------------------------------------------
      LOOP:  cpu time  624.3829: real time  625.6629

 eigenvalue-minimisations  :     0
 total energy-change (2. order) :-0.4774719E+01  (-0.3971416E+01)
 number of electron     252.0000013 magnetization       5.9765626
 augmentation part       13.4459799 magnetization       3.8858639

 DIPCOR: dipole corrections for dipol
 direction  3 min pos     1,
 dipolmoment          -0.000881     -0.000141     -0.110318 electrons x Angstroem
 Tr[quadrupol]     -6956.613277

 energy correction for charged system         0.000000 eV
 dipol+quadrupol energy correction            0.000348 eV
 added-field ion interaction          0.000000 eV  (added to PSCEN)


 Free energy of the ion-electron system (eV)
  ---------------------------------------------------
  alpha Z        PSCENC =       107.99513384
  Ewald energy   TEWEN  =     40462.31378834
  -Hartree energ DENC   =    -49020.94612554
  -exchange      EXHF   =       568.08595971
  -V(xc)+E(xc)   XCENC  =       628.74846180
  PAW double counting   =     27925.83245999   -27953.67935935
  entropy T*S    EENTRO =        -0.00403858
  eigenvalues    EBANDS =     -3354.32461177
  atomic energy  EATOM  =     10014.81987051
  ---------------------------------------------------
  free energy    TOTEN  =      -621.18219775 eV

  energy without entropy =     -621.17815917  energy(sigma->0) =     -621.18017846
  exchange ACFDT corr.  =        -1.15050160  see jH, gK, PRB 81, 115126


--------------------------------------------------------------------------------------------------------




--------------------------------------- Iteration      1(  13)  ---------------------------------------


    POTLOK:  cpu time    6.5352: real time    6.5468
    SETDIJ:  cpu time    3.2206: real time    3.2228
    TRIAL :  cpu time  613.9094: real time  615.1414
    CORREC:  cpu time    0.0046: real time    0.0046
    CHARGE:  cpu time    1.7060: real time    1.7096
    --------------------------------------------
      LOOP:  cpu time  625.3791: real time  626.6317

 eigenvalue-minimisations  :     0
 total energy-change (2. order) :-0.3117489E+01  (-0.2698550E+01)
 number of electron     252.0000013 magnetization       5.9997755
 augmentation part       13.4618174 magnetization       3.9259174

 DIPCOR: dipole corrections for dipol
 direction  3 min pos     1,
 dipolmoment          -0.000866     -0.000139     -0.108409 electrons x Angstroem
 Tr[quadrupol]     -6957.834093

 energy correction for charged system         0.000000 eV
 dipol+quadrupol energy correction            0.000336 eV
 added-field ion interaction          0.000000 eV  (added to PSCEN)


 Free energy of the ion-electron system (eV)
  ---------------------------------------------------
  alpha Z        PSCENC =       107.99512190
  Ewald energy   TEWEN  =     40462.31378834
  -Hartree energ DENC   =    -49043.05796374
  -exchange      EXHF   =       569.19367224
  -V(xc)+E(xc)   XCENC  =       629.25764662
  PAW double counting   =     27870.93146592   -27898.16929207
  entropy T*S    EENTRO =        -0.00006257
  eigenvalues    EBANDS =     -3337.57995793
  atomic energy  EATOM  =     10014.81987051
  ---------------------------------------------------
  free energy    TOTEN  =      -624.29968680 eV

  energy without entropy =     -624.29962424  energy(sigma->0) =     -624.29965552
  exchange ACFDT corr.  =        -1.24644787  see jH, gK, PRB 81, 115126


--------------------------------------------------------------------------------------------------------




--------------------------------------- Iteration      1(  14)  ---------------------------------------


    POTLOK:  cpu time    6.5525: real time    6.5602
    SETDIJ:  cpu time    3.1992: real time    3.2027
    TRIAL :  cpu time  612.7642: real time  614.1347
    CORREC:  cpu time    0.0045: real time    0.0045
    CHARGE:  cpu time    1.6849: real time    1.6872
    --------------------------------------------
      LOOP:  cpu time  624.2105: real time  625.5975

 eigenvalue-minimisations  :     0
 total energy-change (2. order) :-0.2297497E+01  (-0.1903824E+01)
 number of electron     252.0000013 magnetization       5.9999998
 augmentation part       13.5063765 magnetization       3.9683428

 DIPCOR: dipole corrections for dipol
 direction  3 min pos     1,
 dipolmoment          -0.001002     -0.000160     -0.125342 electrons x Angstroem
 Tr[quadrupol]     -6959.105557

 energy correction for charged system         0.000000 eV
 dipol+quadrupol energy correction            0.000449 eV
 added-field ion interaction          0.000000 eV  (added to PSCEN)


 Free energy of the ion-electron system (eV)
  ---------------------------------------------------
  alpha Z        PSCENC =       107.99523509
  Ewald energy   TEWEN  =     40462.31378834
  -Hartree energ DENC   =    -49069.28023861
  -exchange      EXHF   =       570.06321136
  -V(xc)+E(xc)   XCENC  =       629.76411908
  PAW double counting   =     27841.00848192   -27868.33733428
  entropy T*S    EENTRO =        -0.00001154
  eigenvalues    EBANDS =     -3314.94425488
  atomic energy  EATOM  =     10014.81987051
  ---------------------------------------------------
  free energy    TOTEN  =      -626.59718403 eV

  energy without entropy =     -626.59717248  energy(sigma->0) =     -626.59717826
  exchange ACFDT corr.  =        -1.32319534  see jH, gK, PRB 81, 115126


--------------------------------------------------------------------------------------------------------




--------------------------------------- Iteration      1(  15)  ---------------------------------------


    POTLOK:  cpu time    6.5512: real time    6.5595
    SETDIJ:  cpu time    3.2114: real time    3.2136
    TRIAL :  cpu time  612.6285: real time  613.8350
    CORREC:  cpu time    0.0047: real time    0.0047
    CHARGE:  cpu time    1.6341: real time    1.6389
    --------------------------------------------
      LOOP:  cpu time  624.0380: real time  625.2633

 eigenvalue-minimisations  :     0
 total energy-change (2. order) :-0.1649747E+01  (-0.1302082E+01)
 number of electron     252.0000013 magnetization       5.9999999
 augmentation part       13.5333135 magnetization       3.9939190

 DIPCOR: dipole corrections for dipol
 direction  3 min pos     1,
 dipolmoment          -0.001168     -0.000187     -0.146203 electrons x Angstroem
 Tr[quadrupol]     -6960.115555

 energy correction for charged system         0.000000 eV
 dipol+quadrupol energy correction            0.000611 eV
 added-field ion interaction          0.000000 eV  (added to PSCEN)


 Free energy of the ion-electron system (eV)
  ---------------------------------------------------
  alpha Z        PSCENC =       107.99539709
  Ewald energy   TEWEN  =     40462.31378834
  -Hartree energ DENC   =    -49091.03333698
  -exchange      EXHF   =       570.73072759
  -V(xc)+E(xc)   XCENC  =       630.19155909
  PAW double counting   =     27825.50685187   -27853.30158388
  entropy T*S    EENTRO =        -0.00001295
  eigenvalues    EBANDS =     -3295.47019340
  atomic energy  EATOM  =     10014.81987051
  ---------------------------------------------------
  free energy    TOTEN  =      -628.24693130 eV

  energy without entropy =     -628.24691835  energy(sigma->0) =     -628.24692483
  exchange ACFDT corr.  =        -1.29111714  see jH, gK, PRB 81, 115126


--------------------------------------------------------------------------------------------------------




--------------------------------------- Iteration      1(  16)  ---------------------------------------


    POTLOK:  cpu time    6.5506: real time    6.5598
    SETDIJ:  cpu time    3.2093: real time    3.2128
    TRIAL :  cpu time  611.7141: real time  612.8649
    CORREC:  cpu time    0.0021: real time    0.0021
    CHARGE:  cpu time    1.6601: real time    1.6626
    --------------------------------------------
      LOOP:  cpu time  623.1416: real time  624.3113

 eigenvalue-minimisations  :     0
 total energy-change (2. order) :-0.1149704E+01  (-0.9065807E+00)
 number of electron     252.0000013 magnetization       5.9999999
 augmentation part       13.5271260 magnetization       4.0081358

 DIPCOR: dipole corrections for dipol
 direction  3 min pos     1,
 dipolmoment          -0.001248     -0.000200     -0.156229 electrons x Angstroem
 Tr[quadrupol]     -6960.676411

 energy correction for charged system         0.000000 eV
 dipol+quadrupol energy correction            0.000698 eV
 added-field ion interaction          0.000000 eV  (added to PSCEN)


 Free energy of the ion-electron system (eV)
  ---------------------------------------------------
  alpha Z        PSCENC =       107.99548381
  Ewald energy   TEWEN  =     40462.31378834
  -Hartree energ DENC   =    -49103.28256731
  -exchange      EXHF   =       571.17183602
  -V(xc)+E(xc)   XCENC  =       630.46132991
  PAW double counting   =     27814.03519210   -27842.20189106
  entropy T*S    EENTRO =        -0.00002105
  eigenvalues    EBANDS =     -3284.70966482
  atomic energy  EATOM  =     10014.81987051
  ---------------------------------------------------
  free energy    TOTEN  =      -629.39663545 eV

  energy without entropy =     -629.39661440  energy(sigma->0) =     -629.39662492
  exchange ACFDT corr.  =        -1.20964893  see jH, gK, PRB 81, 115126


--------------------------------------------------------------------------------------------------------




--------------------------------------- Iteration      1(  17)  ---------------------------------------


    POTLOK:  cpu time    6.5493: real time    6.5596
    SETDIJ:  cpu time    3.2234: real time    3.2261
    TRIAL :  cpu time  613.0923: real time  614.3138
    CORREC:  cpu time    0.0011: real time    0.0011
    CHARGE:  cpu time    1.6360: real time    1.6396
    --------------------------------------------
      LOOP:  cpu time  624.5072: real time  625.7474

 eigenvalue-minimisations  :     0
 total energy-change (2. order) :-0.8106941E+00  (-0.6445720E+00)
 number of electron     252.0000013 magnetization       5.9999999
 augmentation part       13.5107450 magnetization       4.0230144

 DIPCOR: dipole corrections for dipol
 direction  3 min pos     1,
 dipolmoment          -0.001308     -0.000209     -0.163745 electrons x Angstroem
 Tr[quadrupol]     -6960.920761

 energy correction for charged system         0.000000 eV
 dipol+quadrupol energy correction            0.000767 eV
 added-field ion interaction          0.000000 eV  (added to PSCEN)


 Free energy of the ion-electron system (eV)
  ---------------------------------------------------
  alpha Z        PSCENC =       107.99555259
  Ewald energy   TEWEN  =     40462.31378834
  -Hartree energ DENC   =    -49106.42272528
  -exchange      EXHF   =       571.40024617
  -V(xc)+E(xc)   XCENC  =       630.56187017
  PAW double counting   =     27802.63551158   -27830.76516175
  entropy T*S    EENTRO =        -0.00004163
  eigenvalues    EBANDS =     -3282.74626078
  atomic energy  EATOM  =     10014.81987051
  ---------------------------------------------------
  free energy    TOTEN  =      -630.20732951 eV

  energy without entropy =     -630.20728787  energy(sigma->0) =     -630.20730869
  exchange ACFDT corr.  =        -1.24448622  see jH, gK, PRB 81, 115126


--------------------------------------------------------------------------------------------------------




--------------------------------------- Iteration      1(  18)  ---------------------------------------


    POTLOK:  cpu time    6.5713: real time    6.5773
    SETDIJ:  cpu time    3.2016: real time    3.2049
    TRIAL :  cpu time  611.8706: real time  613.0521
    CORREC:  cpu time    0.0050: real time    0.0050
    CHARGE:  cpu time    1.6711: real time    1.6748
    --------------------------------------------
      LOOP:  cpu time  623.3265: real time  624.5243

 eigenvalue-minimisations  :     0
 total energy-change (2. order) :-0.5853511E+00  (-0.4691309E+00)
 number of electron     252.0000013 magnetization       5.9999999
 augmentation part       13.5097197 magnetization       4.0401131

 DIPCOR: dipole corrections for dipol
 direction  3 min pos     1,
[...]


 VOLUME and BASIS-vectors are now :
 -----------------------------------------------------------------------------
  energy-cutoff  :      500.00
  volume of cell :     3176.87
      direct lattice vectors                 reciprocal lattice vectors
    12.862100000  0.000000000  0.000000000     0.077747802  0.000705093 -0.000622129
    -0.112416260 12.395690260  0.000000000     0.000000000  0.080673200 -0.000103147
     0.159213379  0.025476693 19.925847643     0.000000000  0.000000000  0.050186071

  length of vectors
    12.862100000 12.396200000 19.926500000     0.077753488  0.080673266  0.050186071


 FORCES acting on ions:
    Electron-Ion                     Ewald-Force                    Non-Local-Force
 -----------------------------------------------------------------------------------------------
   0.469E+01 -.343E+01 0.331E+02   -.477E+01 0.326E+01 -.332E+02   0.197E-01 0.134E+00 0.828E-01
   -.134E+00 -.119E+01 0.405E+02   0.359E+00 0.107E+01 -.405E+02   -.190E+00 0.737E-01 0.642E-01
   0.405E+01 -.121E+01 0.358E+02   -.396E+01 0.123E+01 -.357E+02   -.439E-01 0.254E-01 -.988E-01
   0.123E+02 0.674E+00 0.328E+02   -.126E+02 -.759E+00 -.326E+02   0.246E+00 0.169E+00 -.183E+00
   0.706E+01 0.419E+01 0.243E+02   -.718E+01 -.443E+01 -.244E+02   0.259E-01 0.356E-01 0.951E-01
   0.249E+01 0.594E+01 0.370E+02   -.248E+01 -.635E+01 -.371E+02   -.305E-01 0.389E+00 0.914E-01
   0.191E+01 0.596E+01 0.321E+02   -.191E+01 -.610E+01 -.320E+02   0.364E-01 0.146E+00 -.307E-01
   0.174E+02 0.135E+02 0.740E+01   -.175E+02 -.137E+02 -.747E+01   0.207E+00 0.234E+00 0.200E-01
   0.231E+02 0.493E+02 0.154E+02   -.250E+02 -.525E+02 -.165E+02   0.164E+01 0.304E+01 0.105E+01
   0.136E+02 0.521E+01 0.236E+02   -.138E+02 -.514E+01 -.236E+02   0.245E+00 -.561E-01 -.441E-01
   0.133E+02 0.119E+02 0.289E+02   -.137E+02 -.123E+02 -.290E+02   0.417E+00 0.327E+00 0.112E+00
   0.287E+02 -.347E+02 0.159E+01   -.303E+02 0.382E+02 -.210E+01   0.161E+01 -.341E+01 0.573E+00
   0.805E+01 -.566E+01 0.301E+02   -.812E+01 0.598E+01 -.301E+02   0.802E-01 -.286E+00 -.309E-01
   0.169E+02 -.878E+01 0.244E+02   -.173E+02 0.923E+01 -.245E+02   0.344E+00 -.376E+00 0.183E+00
   0.179E+02 -.143E+02 -.198E+01   -.175E+02 0.144E+02 0.189E+01   -.416E+00 -.120E+00 0.309E-01
   0.946E+01 -.117E+02 0.314E+02   -.942E+01 0.118E+02 -.316E+02   -.124E-01 -.728E-01 0.270E+00
   0.209E+01 -.455E+01 0.415E+02   -.192E+01 0.463E+01 -.415E+02   -.143E+00 -.113E+00 0.635E-01
   0.640E+01 -.563E+01 0.383E+02   -.647E+01 0.574E+01 -.383E+02   0.677E-01 -.768E-01 0.738E-01
   0.712E+01 -.722E+01 0.258E+02   -.732E+01 0.736E+01 -.255E+02   0.126E+00 -.131E+00 -.336E+00
   0.145E+00 0.120E+01 0.596E+02   -.510E+00 -.118E+01 -.594E+02   0.313E+00 -.572E-01 -.814E-01
   0.621E+01 0.709E+01 0.540E+02   -.667E+01 -.748E+01 -.541E+02   0.468E+00 0.369E+00 0.110E+00
   0.419E+01 -.128E+01 0.548E+02   -.435E+01 0.120E+01 -.549E+02   0.132E+00 0.872E-01 0.904E-01
   -.581E+01 0.666E+01 0.729E+02   0.585E+01 -.695E+01 -.730E+02   -.148E+00 0.356E+00 0.169E+00
   -.255E+00 0.158E+02 0.706E+02   0.140E+00 -.164E+02 -.705E+02   0.157E+00 0.588E+00 -.639E-01
   0.363E+02 0.368E+02 0.272E+02   -.386E+02 -.401E+02 -.284E+02   0.218E+01 0.296E+01 0.122E+01
   0.853E+01 0.151E+02 0.601E+02   -.892E+01 -.156E+02 -.602E+02   0.253E+00 0.516E+00 0.223E+00
   -.140E+02 0.177E+02 0.764E+02   0.145E+02 -.186E+02 -.771E+02   -.531E+00 0.967E+00 0.744E+00
   -.188E+02 0.271E+02 0.221E+02   0.206E+02 -.304E+02 -.239E+02   -.169E+01 0.329E+01 0.188E+01
   0.223E+02 -.626E+02 -.677E+02   -.232E+02 0.641E+02 0.663E+02   0.908E+00 -.172E+01 0.187E+01
   0.186E+02 -.302E+02 0.354E+01   -.208E+02 0.333E+02 -.408E+01   0.214E+01 -.310E+01 0.556E+00
   0.553E+01 -.651E+01 0.318E+02   -.571E+01 0.635E+01 -.320E+02   0.172E+00 0.137E+00 0.193E+00
   -.326E+01 -.156E+02 -.885E+01   0.309E+01 0.154E+02 0.874E+01   0.200E+00 0.349E+00 0.704E-01
   -.369E+01 -.107E+02 0.476E+02   0.351E+01 0.111E+02 -.478E+02   0.616E-01 -.331E+00 0.293E+00
   -.431E+01 -.220E+01 0.514E+02   0.454E+01 0.219E+01 -.514E+02   -.131E+00 0.338E-02 -.453E-02
   -.611E+01 0.342E+01 0.666E+02   0.626E+01 -.353E+01 -.664E+02   -.795E-01 0.937E-01 -.578E-01
   -.720E+01 0.594E+00 0.584E+02   0.744E+01 -.536E+00 -.585E+02   -.299E+00 -.626E-01 0.128E+00
   -.345E+01 0.314E+01 0.504E+02   0.362E+01 -.321E+01 -.504E+02   -.199E+00 0.856E-01 0.599E-01
   -.613E+01 0.252E+01 0.539E+02   0.644E+01 -.262E+01 -.539E+02   -.215E+00 0.771E-01 -.233E-01
   -.160E+02 0.811E+01 0.624E+02   0.166E+02 -.836E+01 -.623E+02   -.527E+00 0.243E+00 -.110E+00
   -.101E+02 0.696E+01 0.663E+02   0.104E+02 -.720E+01 -.665E+02   -.325E+00 0.253E+00 0.151E+00
   -.366E+01 0.313E+01 0.464E+02   0.382E+01 -.321E+01 -.465E+02   -.143E+00 0.981E-01 0.596E-01
   -.843E+01 0.368E+01 0.425E+02   0.897E+01 -.369E+01 -.426E+02   -.453E+00 -.440E-01 0.946E-01
   -.474E+02 -.160E+02 0.140E+02   0.516E+02 0.163E+02 -.151E+02   -.382E+01 -.445E+00 0.107E+01
   -.192E+02 0.155E+01 0.482E+02   0.197E+02 -.164E+01 -.483E+02   -.622E+00 0.137E+00 0.228E+00
   -.496E+00 -.401E+01 0.257E+02   0.348E+00 0.411E+01 -.256E+02   0.139E+00 -.104E+00 -.554E-01
   -.115E+01 -.165E+01 0.170E+02   0.126E+01 0.180E+01 -.171E+02   -.222E-01 -.968E-01 0.502E-01
   -.437E+02 0.792E+01 0.124E+02   0.474E+02 -.788E+01 -.134E+02   -.349E+01 0.505E-01 0.100E+01
   -.134E+02 -.648E+01 0.152E+01   0.136E+02 0.670E+01 -.169E+01   -.205E+00 -.174E+00 0.134E+00
   -.190E+00 -.129E+01 0.271E+02   0.335E+00 0.132E+01 -.271E+02   -.141E+00 0.142E-02 -.466E-01
   -.491E+01 -.361E+01 0.390E+02   0.535E+01 0.354E+01 -.391E+02   -.396E+00 0.393E-01 0.800E-01
   -.877E+01 -.675E+01 0.461E+02   0.899E+01 0.700E+01 -.460E+02   -.138E+00 -.218E+00 -.924E-01
   -.153E+02 -.439E+01 0.379E+02   0.158E+02 0.450E+01 -.380E+02   -.514E+00 -.151E+00 0.150E+00
   -.162E+01 -.570E+00 0.449E+02   0.174E+01 0.657E+00 -.449E+02   -.138E+00 -.510E-01 0.409E-01
   0.782E+01 0.469E+01 -.240E+02   0.102E+02 -.356E+01 0.273E+02   -.175E+02 -.994E+00 -.353E+01
   0.166E+02 0.129E+02 -.493E+02   -.252E+02 0.214E+01 0.553E+02   0.841E+01 -.147E+02 -.604E+01
   -.146E+02 -.367E+02 -.585E+02   0.502E+01 0.526E+02 0.640E+02   0.900E+01 -.152E+02 -.535E+01
   0.288E+02 -.846E+02 -.457E+03   -.273E+02 0.791E+02 0.475E+03   -.138E+01 0.633E+01 -.167E+02
   0.418E+01 0.192E+02 -.376E+02   -.142E+02 -.355E+02 0.415E+02   0.943E+01 0.155E+02 -.379E+01
   0.586E+02 0.120E+03 -.613E+03   -.597E+02 -.117E+03 0.606E+03   0.450E+00 -.366E+01 0.691E+01
   -.142E+03 -.186E+02 -.566E+03   0.139E+03 0.196E+02 0.559E+03   0.403E+01 -.652E+00 0.672E+01
 -----------------------------------------------------------------------------------------------
   -.103E+02 0.978E+01 0.119E+02   0.142E-12 -.632E-12 0.341E-12   0.954E+01 -.938E+01 -.964E+01
 
 
 POSITION                                       TOTAL-FORCE (eV/Angst)
 -----------------------------------------------------------------------------------
      2.93457      0.02931      9.80423        -0.061403     -0.031666      0.010529
      0.80292      1.26836      9.70208         0.023086     -0.046562      0.027897
      1.50624      0.02335      9.74271         0.049960      0.051130      0.000632
      3.64343      1.28017      9.80716        -0.036119      0.089623      0.024040
      2.94919      2.54493      9.86476        -0.103108     -0.209209      0.000701
      0.77746      3.74726      9.78676        -0.021343     -0.005645      0.023602
      1.51111      2.51908      9.77755         0.033924      0.018320      0.035344
      3.66809      3.79254     10.04350         0.110127      0.127294     -0.050164
      2.88621      5.04326     10.11769        -0.127656      0.049897      0.037135
      0.70959      6.22658      9.92211         0.056342      0.015438      0.025522
      1.46035      4.99933      9.92182         0.111891     -0.061991      0.043608
      2.81023      7.46789     10.22739         0.068568     -0.137608      0.099653
      0.67504      8.69634      9.88278         0.016253      0.017878      0.014341
      1.40110      7.46947      9.98847         0.008305      0.051440      0.033103
      3.50572      8.73524     10.27720        -0.107508     -0.028301     -0.055311
      2.80987      9.94438      9.97748         0.031906      0.078728      0.059347
      0.67935     11.17628      9.74362         0.021505     -0.044690      0.023185
      1.38536      9.93880      9.84470         0.000852      0.023033      0.035270
      3.53289     11.18724      9.91419        -0.066719     -0.003015     -0.009076
      7.10033     12.39239      9.72776        -0.034142     -0.039807      0.070350
      5.06529      1.25079      9.76463         0.032292      0.001500      0.037714
      5.67373     12.40731      9.78081        -0.019417      0.011869      0.022373
      7.93385      1.22106      9.63718        -0.119256      0.084641      0.057360
      7.21611      2.44430      9.71391         0.056032     -0.041265      0.079174
      5.12376      3.71628     10.06677         0.024049     -0.127077      0.119579
      5.79033      2.47718      9.80470        -0.132079      0.017519      0.125555
      7.94535      3.65484      9.79627        -0.018109      0.091227      0.086334
      7.26103      4.82539     10.17410         0.002571      0.111467      0.179220
      4.88155      8.85136     10.70553         0.078458     -0.401055      0.571061
      7.13663      9.96002     10.16458         0.121431     -0.100707      0.044219
      4.96944     11.17793      9.95684         0.007476     -0.010311      0.064845
      5.68719      9.97671     10.26323         0.026816      0.178271     -0.036129
      7.82324     11.16840      9.84552        -0.119475     -0.016066      0.051927
     11.40280     12.40216      9.64054         0.088949     -0.006815      0.028417
      9.36395      1.22935      9.60411         0.068244     -0.004202      0.060261
      9.96997     12.39224      9.63888        -0.072904     -0.006280      0.046271
     12.23267      1.25192      9.63762        -0.032214      0.020896      0.038186
     11.51170      2.48448      9.63603         0.088896     -0.027786      0.027303
      9.36398      3.68722      9.72266         0.036194     -0.000295      0.050091
     10.08169      2.46573      9.61696        -0.067083      0.030825      0.049693
     12.20791      3.73377      9.71298         0.007486      0.013851      0.014076
     11.47160      4.96263      9.78223         0.067302     -0.043713      0.021205
      9.29239      6.12248     10.09066         0.095792     -0.168331     -0.011850
     10.04803      4.93610      9.82923        -0.082551      0.054372      0.083803
     12.13965      6.21662      9.86887        -0.002065     -0.012874      0.016674
     11.38095      7.44156      9.92232         0.090510      0.049322      0.014171
      9.23107      8.71378     10.08830         0.001820      0.107960      0.013494
      9.93547      7.42716     10.05974        -0.008935      0.031686     -0.029807
     12.10313      8.68074      9.85581        -0.003889      0.031542      0.007761
     11.39624      9.92121      9.78411         0.030849     -0.030214      0.022445
      9.25387     11.16187      9.76466         0.071860      0.019345      0.044603
      9.96639      9.92278      9.85286        -0.057559     -0.045083      0.071865
     12.11042     11.16341      9.70362        -0.023253      0.035868      0.026024
      3.47843      6.26385     10.39530        -1.006782      0.044617     -0.572957
      5.90298      4.81483     10.41430         0.502111     -0.934673     -0.597905
      7.95424      5.98653     10.40391         0.192949     -0.677477     -0.272579
      5.34550      7.94625     11.58166        -0.073028      1.396444     -0.590993
      7.87590      8.80312     10.35728         0.191057      0.470354     -0.156914
      5.07316      6.17163     11.40201        -0.088297     -0.364898      0.102851
      7.10801      7.37922     11.48617         0.069034      0.301262     -0.359131
 -----------------------------------------------------------------------------------
    total drift:                                0.006077      0.006551     -0.007132


--------------------------------------------------------------------------------------------------------



  FREE ENERGIE OF THE ION-ELECTRON SYSTEM (eV)
  ---------------------------------------------------
  free  energy   TOTEN  =      -632.81107088 eV

  energy  without entropy=     -632.80836727  energy(sigma->0) =     -632.80971908
 


--------------------------------------------------------------------------------------------------------


    POTLOK:  cpu time    9.4385: real time    9.4474


--------------------------------------------------------------------------------------------------------


 stress matrix after NEB project (eV)
    -43.93508     -0.53111     -0.11880
     -0.53281    -41.18230      1.35236
     -0.11651      1.35549     -2.27331
  FORCES: max atom, RMS     1.518111    0.353465
  FORCE total and by dimension    2.737924    1.396444
  Stress total and by dimension   60.296773   43.935077
 writing wavefunctions
     LOOP+:  cpu time62195.2040: real time62305.3168
    4ORBIT:  cpu time    0.0000: real time    0.0000
 


 total charge     
 
# of ion       s       p       d       tot
------------------------------------------
    1        0.864   1.756   0.000   2.619
    2        0.863   1.754   0.000   2.617
    3        0.863   1.768   0.000   2.631
    4        0.861   1.763   0.000   2.623
    5        0.858   1.728   0.000   2.586
    6        0.863   1.760   0.000   2.623
    7        0.860   1.756   0.000   2.616
    8        0.844   1.726   0.000   2.570
    9        0.850   1.693   0.000   2.543
   10        0.866   1.753   0.000   2.620
   11        0.861   1.760   0.000   2.621
   12        0.856   1.714   0.000   2.570
   13        0.863   1.763   0.000   2.626
   14        0.866   1.779   0.000   2.645
   15        0.859   1.768   0.000   2.627
   16        0.865   1.753   0.000   2.618
   17        0.865   1.761   0.000   2.626
   18        0.864   1.768   0.000   2.632
   19        0.859   1.764   0.000   2.623
   20        0.867   1.772   0.000   2.639
   21        0.867   1.766   0.000   2.633
   22        0.864   1.772   0.000   2.635
   23        0.867   1.780   0.000   2.646
   24        0.870   1.777   0.000   2.647
   25        0.853   1.705   0.000   2.558
   26        0.865   1.778   0.000   2.643
   27        0.872   1.813   0.000   2.685
   28        0.860   1.721   0.000   2.581
   29        0.865   1.723   0.000   2.588
   30        0.855   1.710   0.000   2.565
   31        0.866   1.750   0.000   2.616
   32        0.855   1.757   0.000   2.611
   33        0.865   1.778   0.000   2.643
   34        0.863   1.761   0.000   2.624
   35        0.866   1.763   0.000   2.630
   36        0.864   1.771   0.000   2.635
   37        0.863   1.761   0.000   2.624
   38        0.865   1.763   0.000   2.629
   39        0.869   1.775   0.000   2.644
   40        0.866   1.776   0.000   2.642
   41        0.862   1.762   0.000   2.624
   42        0.866   1.768   0.000   2.634
   43        0.856   1.710   0.000   2.565
   44        0.865   1.781   0.000   2.646
   45        0.861   1.767   0.000   2.629
   46        0.859   1.733   0.000   2.592
   47        0.851   1.700   0.000   2.552
   48        0.845   1.737   0.000   2.582
   49        0.862   1.764   0.000   2.625
   50        0.864   1.760   0.000   2.623
   51        0.866   1.756   0.000   2.622
   52        0.863   1.769   0.000   2.632
   53        0.864   1.763   0.000   2.627
   54        1.228   2.677   0.000   3.905
   55        1.229   2.699   0.000   3.927
   56        1.229   2.709   0.000   3.939
   57        1.257   2.598   0.000   3.855
   58        1.227   2.686   0.000   3.913
   59        0.486   0.621   6.361   7.468
   60        0.347   0.421   5.009   5.778
--------------------------------------------------
tot         52.685 107.440  11.371 171.495
 


 magnetization (x)
 
# of ion       s       p       d       tot
------------------------------------------
    1       -0.002  -0.026   0.000  -0.028
    2       -0.002  -0.027   0.000  -0.029
    3        0.002   0.016   0.000   0.018
    4        0.001   0.015   0.000   0.017
    5       -0.002  -0.021   0.000  -0.023
    6       -0.003  -0.036   0.000  -0.039
    7        0.002   0.022   0.000   0.024
    8        0.003   0.021   0.000   0.024
    9       -0.002  -0.039   0.000  -0.041
   10       -0.002  -0.022   0.000  -0.024
   11        0.002   0.022   0.000   0.025
   12       -0.002  -0.023   0.000  -0.025
   13       -0.003  -0.036   0.000  -0.038
   14        0.001   0.016   0.000   0.017
   15        0.001   0.009   0.000   0.010
   16       -0.002  -0.021   0.000  -0.022
   17       -0.002  -0.023   0.000  -0.024
   18        0.002   0.015   0.000   0.017
   19        0.002   0.018   0.000   0.019
   20       -0.001  -0.020   0.000  -0.022
   21       -0.001  -0.017   0.000  -0.018
   22        0.001   0.004   0.000   0.005
   23        0.001   0.012   0.000   0.014
   24       -0.001  -0.017   0.000  -0.018
   25       -0.001  -0.035   0.000  -0.036
   26        0.002   0.011   0.000   0.012
   27        0.000   0.003   0.000   0.003
   28       -0.000  -0.007   0.000  -0.007
   29        0.001  -0.007   0.000  -0.007
   30       -0.000  -0.013   0.000  -0.014
   31       -0.001  -0.013   0.000  -0.014
   32        0.000   0.009   0.000   0.009
   33        0.001   0.009   0.000   0.010
   34       -0.003  -0.035   0.000  -0.037
   35       -0.001  -0.018   0.000  -0.020
   36        0.001   0.012   0.000   0.014
   37        0.002   0.019   0.000   0.021
   38       -0.002  -0.028   0.000  -0.030
   39       -0.002  -0.023   0.000  -0.024
   40        0.001   0.014   0.000   0.015
   41        0.002   0.017   0.000   0.019
   42       -0.002  -0.034   0.000  -0.036
   43       -0.001  -0.027   0.000  -0.027
   44        0.002   0.015   0.000   0.017
   45        0.002   0.019   0.000   0.021
   46       -0.002  -0.027   0.000  -0.029
   47       -0.002  -0.034   0.000  -0.036
   48        0.003   0.019   0.000   0.021
   49        0.002   0.020   0.000   0.022
   50       -0.002  -0.028   0.000  -0.030
   51       -0.002  -0.021   0.000  -0.023
   52        0.002   0.021   0.000   0.023
   53        0.002   0.018   0.000   0.020
   54       -0.001   0.012   0.000   0.011
   55        0.000  -0.003   0.000  -0.003
   56       -0.002  -0.011   0.000  -0.013
   57       -0.012  -0.156   0.000  -0.168
   58        0.001  -0.002   0.000  -0.001
   59        0.012   0.065   2.274   2.351
   60        0.051   0.071   3.759   3.882
--------------------------------------------------
tot          0.046  -0.326   6.033   5.753
 

 total amount of memory used by VASP MPI-rank0   311235. kBytes
=======================================================================

   base      :      30000. kBytes
   nonl-proj :      10722. kBytes
   fftplans  :      26523. kBytes
   grid      :      69087. kBytes
   one-center:        124. kBytes
   HF        :         23. kBytes
   nonlr-proj:      16518. kBytes
   wavefun   :     158238. kBytes
 
  
  
 General timing and accounting informations for this job:
 ========================================================
  
                  Total CPU time used (sec):    62251.945
                            User time (sec):    62223.921
                          System time (sec):       28.025
                         Elapsed time (sec):    62366.315
  
                   Maximum memory used (kb):      594552.
                   Average memory used (kb):           0.
  
                          Minor page faults:      2283387
                          Major page faults:          229
                 Voluntary context switches:        42853
