 vasp.5.4.4.18Apr17-6-g9f103f2a35 (build Feb 25 2019 10:51:38) complex          
  
 executed on             LinuxIFC date 2021.08.06  12:10:32
 running on   32 total cores
 distrk:  each k-point on   32 cores,    1 groups
 distr:  one band on NCORES_PER_BAND=  32 cores,    1 groups


--------------------------------------------------------------------------------------------------------


 INCAR:
 POTCAR:    PAW_PBE C 08Apr2002                   
 POTCAR:    PAW_PBE N 08Apr2002                   
 POTCAR:    PAW_PBE Co 02Aug2007                  
 POTCAR:    PAW_PBE Fe 06Sep2000                  

 ----------------------------------------------------------------------------- 
|                                                                             |
|           W    W    AA    RRRRR   N    N  II  N    N   GGGG   !!!           |
|           W    W   A  A   R    R  NN   N  II  NN   N  G    G  !!!           |
|           W    W  A    A  R    R  N N  N  II  N N  N  G       !!!           |
|           W WW W  AAAAAA  RRRRR   N  N N  II  N  N N  G  GGG   !            |
|           WW  WW  A    A  R   R   N   NN  II  N   NN  G    G                |
|           W    W  A    A  R    R  N    N  II  N    N   GGGG   !!!           |
|                                                                             |
|      For optimal performance we recommend to set                            |
|        NCORE= 4 - approx SQRT( number of cores)                             |
|      NCORE specifies how many cores store one orbital (NPAR=cpu/NCORE).     |
|      This setting can  greatly improve the performance of VASP for DFT.     |
|      The default,   NCORE=1            might be grossly inefficient         |
|      on modern multi-core architectures or massively parallel machines.     |
|      Do your own testing !!!!                                               |
|      Unfortunately you need to use the default for GW and RPA calculations. |
|      (for HF NCORE is supported but not extensively tested yet)             |
|                                                                             |
 ----------------------------------------------------------------------------- 

 POTCAR:    PAW_PBE C 08Apr2002                   
   VRHFIN =C: s2p2                                                              
   LEXCH  = PE                                                                  
   EATOM  =   147.1560 eV,   10.8157 Ry                                         
                                                                                
   TITEL  = PAW_PBE C 08Apr2002                                                 
   LULTRA =        F    use ultrasoft PP ?                                      
   IUNSCR =        1    unscreen: 0-lin 1-nonlin 2-no                           
   RPACOR =    1.200    partial core radius                                     
   POMASS =   12.011; ZVAL   =    4.000    mass and valenz                      
   RCORE  =    1.500    outmost cutoff radius                                   
   RWIGS  =    1.630; RWIGS  =    0.863    wigner-seitz radius (au A)           
   ENMAX  =  400.000; ENMIN  =  300.000 eV                                      
   ICORE  =        2    local potential                                         
   LCOR   =        T    correct aug charges                                     
   LPAW   =        T    paw PP                                                  
   EAUG   =  644.873                                                            
   DEXC   =    0.000                                                            
   RMAX   =    1.529    core radius for proj-oper                               
   RAUG   =    1.300    factor for augmentation sphere                          
   RDEP   =    1.501    radius for radial grids                                 
   RDEPT  =    1.300    core radius for aug-charge                              
                                                                                
   Atomic configuration                                                         
    4 entries                                                                   
     n  l   j            E        occ.                                          
     1  0  0.50      -273.3789   2.0000                                         
     2  0  0.50       -13.7508   2.0000                                         
     2  1  0.50        -5.2854   2.0000                                         
     3  2  1.50        -5.4423   0.0000                                         
   Description                                                                  
     l       E           TYP  RCUT    TYP  RCUT                                 
     0    -13.7508458     23  1.200                                             
     0     -8.2022199     23  1.200                                             
     1     -5.2854383     23  1.500                                             
     1     34.0145650     23  1.500                                             
     2     -5.4423304      7  1.500                                             
  local pseudopotential read in
  partial core-charges read in
  partial kinetic energy density read in
  atomic valenz-charges read in
  non local Contribution for L=           0  read in
    real space projection operators read in
  non local Contribution for L=           0  read in
    real space projection operators read in
  non local Contribution for L=           1  read in
    real space projection operators read in
  non local Contribution for L=           1  read in
    real space projection operators read in
    PAW grid and wavefunctions read in
 
   number of l-projection  operators is LMAX  =           4
   number of lm-projection operators is LMMAX =           8
 
 POTCAR:    PAW_PBE N 08Apr2002                   
   VRHFIN =N: s2p3                                                              
   LEXCH  = PE                                                                  
   EATOM  =   264.5486 eV,   19.4438 Ry                                         
                                                                                
   TITEL  = PAW_PBE N 08Apr2002                                                 
   LULTRA =        F    use ultrasoft PP ?                                      
   IUNSCR =        1    unscreen: 0-lin 1-nonlin 2-no                           
   RPACOR =    1.200    partial core radius                                     
   POMASS =   14.001; ZVAL   =    5.000    mass and valenz                      
   RCORE  =    1.500    outmost cutoff radius                                   
   RWIGS  =    1.400; RWIGS  =    0.741    wigner-seitz radius (au A)           
   ENMAX  =  400.000; ENMIN  =  300.000 eV                                      
   ICORE  =        2    local potential                                         
   LCOR   =        T    correct aug charges                                     
   LPAW   =        T    paw PP                                                  
   EAUG   =  627.112                                                            
   DEXC   =    0.000                                                            
   RMAX   =    1.529    core radius for proj-oper                               
   RAUG   =    1.300    factor for augmentation sphere                          
   RDEP   =    1.514    radius for radial grids                                 
   RDEPT  =    1.338    core radius for aug-charge                              
                                                                                
   Atomic configuration                                                         
    4 entries                                                                   
     n  l   j            E        occ.                                          
     1  0  0.50      -384.7179   2.0000                                         
     2  0  0.50       -18.5828   2.0000                                         
     2  1  0.50        -7.0898   3.0000                                         
     3  2  1.50        -6.8029   0.0000                                         
   Description                                                                  
     l       E           TYP  RCUT    TYP  RCUT                                 
     0    -18.5828119     23  1.200                                             
     0    -13.5018863     23  1.200                                             
     1     -7.0897853     23  1.500                                             
     1      9.5240782     23  1.500                                             
     2     -6.8029130      7  1.500                                             
  local pseudopotential read in
  partial core-charges read in
  partial kinetic energy density read in
  atomic valenz-charges read in
  non local Contribution for L=           0  read in
    real space projection operators read in
  non local Contribution for L=           0  read in
    real space projection operators read in
  non local Contribution for L=           1  read in
    real space projection operators read in
  non local Contribution for L=           1  read in
    real space projection operators read in
    PAW grid and wavefunctions read in
 
   number of l-projection  operators is LMAX  =           4
   number of lm-projection operators is LMMAX =           8
 
 POTCAR:    PAW_PBE Co 02Aug2007                  
   VRHFIN =Co: d8 s1                                                            
   LEXCH  = PE                                                                  
   EATOM  =   813.3670 eV,   59.7808 Ry                                         
                                                                                
   TITEL  = PAW_PBE Co 02Aug2007                                                
   LULTRA =        F    use ultrasoft PP ?                                      
   IUNSCR =        1    unscreen: 0-lin 1-nonlin 2-no                           
   RPACOR =    2.000    partial core radius                                     
   POMASS =   58.933; ZVAL   =    9.000    mass and valenz                      
   RCORE  =    2.300    outmost cutoff radius                                   
   RWIGS  =    2.460; RWIGS  =    1.302    wigner-seitz radius (au A)           
   ENMAX  =  267.968; ENMIN  =  200.976 eV                                      
   RCLOC  =    1.203    cutoff for local pot                                    
   LCOR   =        T    correct aug charges                                     
   LPAW   =        T    paw PP                                                  
   EAUG   =  477.818                                                            
   DEXC   =    0.000                                                            
   RMAX   =    2.360    core radius for proj-oper                               
   RAUG   =    1.300    factor for augmentation sphere                          
   RDEP   =    2.393    radius for radial grids                                 
   RDEPT  =    1.864    core radius for aug-charge                              
                                                                                
   Atomic configuration                                                         
    9 entries                                                                   
     n  l   j            E        occ.                                          
     1  0  0.50     -7587.6674   2.0000                                         
     2  0  0.50      -893.6084   2.0000                                         
     2  1  1.50      -764.5805   6.0000                                         
     3  0  0.50       -97.5973   2.0000                                         
     3  1  1.50       -60.9648   6.0000                                         
     3  2  2.50        -4.2382   8.0000                                         
     4  0  0.50        -4.3746   1.0000                                         
     4  1  1.50        -4.0817   0.0000                                         
     4  3  2.50        -1.3606   0.0000                                         
   Description                                                                  
     l       E           TYP  RCUT    TYP  RCUT                                 
     2     -4.2382362     23  2.300                                             
     2     -5.5988188     23  2.300                                             
     0     -4.3745797     23  2.300                                             
     0      5.7660125     23  2.300                                             
     1     -2.7211652     23  2.300                                             
     1     16.9860234     23  2.300                                             
  local pseudopotential read in
  partial core-charges read in
  partial kinetic energy density read in
  atomic valenz-charges read in
  non local Contribution for L=           2  read in
    real space projection operators read in
  non local Contribution for L=           2  read in
    real space projection operators read in
  non local Contribution for L=           0  read in
    real space projection operators read in
  non local Contribution for L=           0  read in
    real space projection operators read in
  non local Contribution for L=           1  read in
    real space projection operators read in
  non local Contribution for L=           1  read in
    real space projection operators read in
    PAW grid and wavefunctions read in
 
   number of l-projection  operators is LMAX  =           6
   number of lm-projection operators is LMMAX =          18
 
 POTCAR:    PAW_PBE Fe 06Sep2000                  
   VRHFIN =Fe:  d7 s1                                                           
   LEXCH  = PE                                                                  
   EATOM  =   594.3153 eV,   43.6809 Ry                                         
                                                                                
   TITEL  = PAW_PBE Fe 06Sep2000                                                
   LULTRA =        F    use ultrasoft PP ?                                      
   IUNSCR =        1    unscreen: 0-lin 1-nonlin 2-no                           
   RPACOR =    2.000    partial core radius                                     
   POMASS =   55.847; ZVAL   =    8.000    mass and valenz                      
   RCORE  =    2.300    outmost cutoff radius                                   
   RWIGS  =    2.460; RWIGS  =    1.302    wigner-seitz radius (au A)           
   ENMAX  =  267.882; ENMIN  =  200.911 eV                                      
   RCLOC  =    1.701    cutoff for local pot                                    
   LCOR   =        T    correct aug charges                                     
   LPAW   =        T    paw PP                                                  
   EAUG   =  511.368                                                            
   DEXC   =    0.000                                                            
   RMAX   =    2.356    core radius for proj-oper                               
   RAUG   =    1.300    factor for augmentation sphere                          
   RDEP   =    2.442    radius for radial grids                                 
   RDEPT  =    1.890    core radius for aug-charge                              
                                                                                
   Atomic configuration                                                         
    9 entries                                                                   
     n  l   j            E        occ.                                          
     1  0  0.50     -6993.8440   2.0000                                         
     2  0  0.50      -814.6047   2.0000                                         
     2  1  1.50      -693.3689   6.0000                                         
     3  0  0.50       -89.4732   2.0000                                         
     3  1  1.50       -55.6373   6.0000                                         
     3  2  2.50        -3.8151   7.0000                                         
     4  0  0.50        -4.2551   1.0000                                         
     4  1  1.50        -3.4015   0.0000                                         
     4  3  2.50        -1.3606   0.0000                                         
   Description                                                                  
     l       E           TYP  RCUT    TYP  RCUT                                 
     2     -3.8151135     23  2.300                                             
     2     -5.1756961     23  2.300                                             
     0     -4.2550963     23  2.300                                             
     0      7.2035603     23  2.300                                             
     1     -2.7211652     23  2.300                                             
     1     18.4316424     23  2.300                                             
  local pseudopotential read in
  partial core-charges read in
  partial kinetic energy density read in
  atomic valenz-charges read in
  non local Contribution for L=           2  read in
    real space projection operators read in
  non local Contribution for L=           2  read in
    real space projection operators read in
  non local Contribution for L=           0  read in
    real space projection operators read in
  non local Contribution for L=           0  read in
    real space projection operators read in
  non local Contribution for L=           1  read in
    real space projection operators read in
  non local Contribution for L=           1  read in
    real space projection operators read in
    PAW grid and wavefunctions read in
 
   number of l-projection  operators is LMAX  =           6
   number of lm-projection operators is LMMAX =          18
 

 ----------------------------------------------------------------------------- 
|                                                                             |
|  ADVICE TO THIS USER RUNNING 'VASP/VAMP'   (HEAR YOUR MASTER'S VOICE ...):  |
|                                                                             |
|      You have a (more or less) 'large supercell' and for larger cells       |
|      it might be more efficient to use real space projection opertators     |
|      So try LREAL= Auto  in the INCAR   file.                               |
|      Mind:          For very  accurate calculation you might also keep the  |
|      reciprocal projection scheme          (i.e. LREAL=.FALSE.)             |
|                                                                             |
 ----------------------------------------------------------------------------- 

  PAW_PBE C 08Apr2002                   :
 energy of atom  1       EATOM= -147.1560
 kinetic energy error for atom=    0.0076 (will be added to EATOM!!)
  PAW_PBE N 08Apr2002                   :
 energy of atom  2       EATOM= -264.5486
 kinetic energy error for atom=    0.0138 (will be added to EATOM!!)
  PAW_PBE Co 02Aug2007                  :
 energy of atom  3       EATOM= -813.3670
 kinetic energy error for atom=    0.0028 (will be added to EATOM!!)
  PAW_PBE Fe 06Sep2000                  :
 energy of atom  4       EATOM= -594.3153
 kinetic energy error for atom=    0.0026 (will be added to EATOM!!)
 
 
 POSCAR:  C  N Co Fe                             
  positions in cartesian coordinates
  No initial velocities read in
 exchange correlation table for  LEXCH =        8
   RHO(1)=    0.500       N(1)  =     2000
   RHO(2)=  100.500       N(2)  =     4000

 VTST: version 3.2, (02/03/18)

 CHAIN: initializing optimizer
 
 OPT: Using VASP Conjugate-Gradient optimizer
 CHAIN: Read ICHAIN            0
 
 POSCAR:  C  N Co Fe                             
  positions in cartesian coordinates
  No initial velocities read in
 


--------------------------------------------------------------------------------------------------------


 ion  position               nearest neighbor table
   1  0.221  0.001  0.500-   3 1.42  20 1.43   4 1.44
   2  0.055  0.101  0.500-  34 1.42   7 1.44   3 1.44
   3  0.110  0.000  0.500-   1 1.42   2 1.44  18 1.44
   4  0.277  0.100  0.500-  22 1.42   5 1.43   1 1.44
   5  0.223  0.201  0.500-   4 1.43   7 1.43   8 1.45
   6  0.054  0.300  0.500-  38 1.43   7 1.44  11 1.44
   7  0.111  0.201  0.500-   5 1.43   2 1.44   6 1.44
   8  0.282  0.300  0.500-  51 1.43   5 1.45   9 1.45
   9  0.223  0.399  0.500-  11 1.43  12 1.44   8 1.45
  10  0.054  0.499  0.500-  42 1.44  11 1.44  15 1.45
  11  0.111  0.400  0.500-   9 1.43   6 1.44  10 1.44
  12  0.279  0.499  0.500-  52 1.40   9 1.44  13 1.44
  13  0.224  0.600  0.500-  15 1.43  12 1.44  16 1.45
  14  0.055  0.699  0.500-  46 1.43  19 1.44  15 1.44
  15  0.112  0.599  0.500-  13 1.43  14 1.44  10 1.45
  16  0.281  0.700  0.500-  53 1.42  17 1.45  13 1.45
  17  0.223  0.800  0.500-  19 1.43  20 1.43  16 1.45
  18  0.055  0.899  0.500-  50 1.42  19 1.44   3 1.44
  19  0.111  0.799  0.500-  17 1.43  18 1.44  14 1.44
  20  0.276  0.901  0.500-  28 1.42  17 1.43   1 1.43
  21  0.555  0.001  0.500-  23 1.42  30 1.42  24 1.42
  22  0.388  0.100  0.500-  26 1.42   4 1.42  23 1.42
  23  0.443  0.001  0.500-  21 1.42  22 1.42  28 1.43
  24  0.611  0.099  0.500-  25 1.41  32 1.42  21 1.42
  25  0.557  0.196  0.500-  55 1.38  24 1.41  26 1.43
  26  0.444  0.199  0.500-  22 1.42  51 1.43  25 1.43
  27  0.555  0.805  0.500-  30 1.41  54 1.41  29 1.44
  28  0.387  0.902  0.500-  29 1.41  20 1.42  23 1.43
  29  0.443  0.804  0.500-  28 1.41  53 1.42  27 1.44
  30  0.611  0.902  0.500-  27 1.41  21 1.42  48 1.42
  31  0.889  1.000  0.500-  33 1.42  34 1.44  50 1.44
  32  0.722  0.099  0.500-  24 1.42  37 1.42  33 1.43
  33  0.778  1.000  0.500-  31 1.42  32 1.43  48 1.43
  34  0.943  0.101  0.500-   2 1.42  31 1.44  35 1.44
  35  0.887  0.200  0.500-  37 1.43  38 1.43  34 1.44
  36  0.715  0.298  0.500-  55 1.38  37 1.45  41 1.45
  37  0.775  0.199  0.500-  32 1.42  35 1.43  36 1.45
  38  0.943  0.300  0.500-   6 1.43  35 1.43  39 1.44
  39  0.885  0.399  0.500-  41 1.44  38 1.44  42 1.45
  40  0.717  0.499  0.500-  56 1.33  41 1.45  45 1.45
  41  0.772  0.398  0.500-  39 1.44  40 1.45  36 1.45
  42  0.942  0.499  0.500-  10 1.44  43 1.44  39 1.45
  43  0.886  0.599  0.500-  45 1.43  42 1.44  46 1.45
  44  0.717  0.700  0.500-  54 1.42  45 1.45  49 1.45
  45  0.774  0.600  0.500-  43 1.43  44 1.45  40 1.45
  46  0.943  0.699  0.500-  14 1.43  47 1.44  43 1.45
  47  0.888  0.800  0.500-  49 1.43  46 1.44  50 1.44
  48  0.722  0.900  0.500-  30 1.42  49 1.43  33 1.43
  49  0.776  0.800  0.500-  48 1.43  47 1.43  44 1.45
  50  0.944  0.899  0.500-  18 1.42  31 1.44  47 1.44
  51  0.394  0.300  0.500-  26 1.43   8 1.43  57 1.93
  52  0.389  0.496  0.500-  12 1.40  57 1.81  58 1.85
  53  0.393  0.702  0.500-  29 1.42  16 1.42  58 2.00
  54  0.606  0.705  0.500-  27 1.41  44 1.42  58 1.96
  55  0.607  0.294  0.500-  25 1.38  36 1.38  57 1.96
  56  0.613  0.500  0.500-  40 1.33  58 1.78  57 1.82
  57  0.502  0.408  0.500-  52 1.81  56 1.82  51 1.93  55 1.96  58 2.24
  58  0.502  0.588  0.500-  56 1.78  52 1.85  54 1.96  53 2.00  57 2.24
 
  LATTYP: Found a triclinic cell.
 ALAT       =    12.4855988665
 B/A-ratio  =     1.4293678854
 C/A-ratio  =     1.5968469190
 COS(alpha) =     0.0000512777
 COS(beta)  =     0.0002746048
 COS(gamma) =     0.6990207331
  
  Lattice vectors:
  
 A1 = (  -0.0058775115,  12.4855974814,   0.0002092771)
 A2 = (  12.7561932361,  12.4810896095,   0.0000714898)
 A3 = (  -0.0041398957,   0.0058071938, -19.9375888057)


Analysis of symmetry for initial positions (statically):
=====================================================================
 Subroutine PRICEL returns:
 Original cell was already a primitive cell.
 

 Routine SETGRP: Setting up the symmetry group for a 
 triclinic supercell.


 Subroutine GETGRP returns: Found  1 space group operations
 (whereof  1 operations were pure point group operations)
 out of a pool of  2 trial point group operations.


The static configuration has the point symmetry C_1 .


Analysis of symmetry for dynamics (positions and initial velocities):
=====================================================================
 Subroutine PRICEL returns:
 Original cell was already a primitive cell.
 

 Routine SETGRP: Setting up the symmetry group for a 
 triclinic supercell.


 Subroutine GETGRP returns: Found  1 space group operations
 (whereof  1 operations were pure point group operations)
 out of a pool of  2 trial point group operations.


The dynamic configuration has the point symmetry C_1 .


Analysis of structural, dynamic, and magnetic symmetry:
=====================================================================
 Subroutine PRICEL returns:
 Original cell was already a primitive cell.
 

 Routine SETGRP: Setting up the symmetry group for a 
 triclinic supercell.


 Subroutine GETGRP returns: Found  1 space group operations
 (whereof  1 operations were pure point group operations)
 out of a pool of  2 trial point group operations.


The magnetic configuration has the point symmetry C_1 .


 Subroutine INISYM returns: Found  1 space group operations
 (whereof  1 operations are pure point group operations),
 and found     1 'primitive' translations

 
 
 KPOINTS: KPOINTS created by Atomic Simulation Env

Automatic generation of k-mesh.
Space group operators:
 irot       det(A)        alpha          n_x          n_y          n_z        tau_x        tau_y        tau_z
    1     1.000000     0.000000     1.000000     0.000000     0.000000     0.000000     0.000000     0.000000
 
 Subroutine IBZKPT returns following result:
 ===========================================
 
 Found      2 irreducible k-points:
 
 Following reciprocal coordinates:
            Coordinates               Weight
  0.250000  0.250000  0.000000      2.000000
 -0.250000  0.250000  0.000000      2.000000
 
 Following cartesian coordinates:
            Coordinates               Weight
  0.019596  0.020032  0.000002      2.000000
 -0.019582  0.020014  0.000010      2.000000
 
 
 Subroutine IBZKPT_HF returns following result:
 ==============================================
 
 Found      4 k-points in 1st BZ
 the following      4 k-points will be used (e.g. in the exchange kernel)
 Following reciprocal coordinates:   # in IRBZ
  0.250000  0.250000  0.000000    0.25000000   1 t-inv F
 -0.250000  0.250000  0.000000    0.25000000   2 t-inv F
 -0.250000 -0.250000 -0.000000    0.25000000   1 t-inv T
  0.250000 -0.250000 -0.000000    0.25000000   2 t-inv T


--------------------------------------------------------------------------------------------------------




 Dimension of arrays:
   k-points           NKPTS =      2   k-points in BZ     NKDIM =      4   number of bands    NBANDS=    155
   number of dos      NEDOS =    301   number of ions     NIONS =     58
   non local maximal  LDIM  =      6   non local SUM 2l+1 LMDIM =     18
   total plane-waves  NPLWV = ******
   max r-space proj   IRMAX =      1   max aug-charges    IRDMAX=  17359
   dimension x,y,z NGX =    96 NGY =   96 NGZ =  150
   dimension x,y,z NGXF=   192 NGYF=  192 NGZF=  300
   support grid    NGXF=   192 NGYF=  192 NGZF=  300
   ions per type =              54   2   1   1
   NGX,Y,Z   is equivalent  to a cutoff of  12.51, 12.78, 12.51 a.u.
   NGXF,Y,Z  is equivalent  to a cutoff of  25.01, 25.56, 25.01 a.u.

 SYSTEM =  unknown system                          
 POSCAR =   C  N Co Fe                             

 Startparameter for this run:
   NWRITE =      2    write-flag & timer
   PREC   = accura    normal or accurate (medium, high low for compatibility)
   ISTART =      1    job   : 0-new  1-cont  2-samecut
   ICHARG =      0    charge: 1-file 2-atom 10-const
   ISPIN  =      2    spin polarized calculation?
   LNONCOLLINEAR =      F non collinear calculations
   LSORBIT =      F    spin-orbit coupling
   INIWAV =      1    electr: 0-lowe 1-rand  2-diag
   LASPH  =      T    aspherical Exc in radial PAW
   METAGGA=      F    non-selfconsistent MetaGGA calc.

 Electronic Relaxation 1
   ENCUT  =  500.0 eV  36.75 Ry    6.06 a.u.  23.27 22.76 36.35*2*pi/ulx,y,z
   ENINI  =  500.0     initial cutoff
   ENAUG  =  644.9 eV  augmentation charge cutoff
   NELM   =    250;   NELMIN=  2; NELMDL=  0     # of ELM steps 
   EDIFF  = 0.1E-03   stopping-criterion for ELM
   LREAL  =      F    real-space projection
   NLSPLINE    = F    spline interpolate recip. space projectors
   LCOMPAT=      F    compatible to vasp.4.4
   GGA_COMPAT  = T    GGA compatible to vasp.4.4-vasp.4.6
   LMAXPAW     = -100 max onsite density
   LMAXMIX     =    2 max onsite mixed and CHGCAR
   VOSKOWN=      0    Vosko Wilk Nusair interpolation
   ROPT   =    0.00000   0.00000   0.00000   0.00000
 Ionic relaxation
   EDIFFG = -.3E-01   stopping-criterion for IOM
   NSW    =      0    number of steps for IOM
   NBLOCK =      1;   KBLOCK =      1    inner block; outer block 
   IBRION =     -1    ionic relax: 0-MD 1-quasi-New 2-CG
   NFREE  =      1    steps in history (QN), initial steepest desc. (CG)
   ISIF   =      2    stress and relaxation
   IWAVPR =     10    prediction:  0-non 1-charg 2-wave 3-comb
   ISYM   =      3    0-nonsym 1-usesym 2-fastsym
   LCORR  =      T    Harris-Foulkes like correction to forces

   POTIM  = 0.5000    time-step for ionic-motion
   TEIN   =    0.0    initial temperature
   TEBEG  =    0.0;   TEEND  =   0.0 temperature during run
   SMASS  =  -3.00    Nose mass-parameter (am)
   estimated Nose-frequenzy (Omega)   =  0.10E-29 period in steps =****** mass=  -0.372E-26a.u.
   SCALEE = 1.0000    scale energy and forces
   NPACO  =    256;   APACO  = 16.0  distance and # of slots for P.C.
   PSTRESS=    0.0 pullay stress

  Mass of Ions in am
   POMASS =  12.01 14.00 58.93 55.85
  Ionic Valenz
   ZVAL   =   4.00  5.00  9.00  8.00
  Atomic Wigner-Seitz radii
   RWIGS  =  -1.00 -1.00 -1.00 -1.00
  virtual crystal weights 
   VCA    =   1.00  1.00  1.00  1.00
   NELECT =     243.0000    total number of electrons
   NUPDOWN=      -1.0000    fix difference up-down

 DOS related values:
   EMIN   =  10.00;   EMAX   =-10.00  energy-range for DOS
   EFERMI =   0.00
   ISMEAR =     0;   SIGMA  =   0.10  broadening in eV -4-tet -1-fermi 0-gaus

 Electronic relaxation 2 (details)
   IALGO  =     53    algorithm
   LDIAG  =      T    sub-space diagonalisation (order eigenvalues)
   LSUBROT=      F    optimize rotation matrix (better conditioning)
   TURBO    =      0    0=normal 1=particle mesh
   IRESTART =      0    0=no restart 2=restart with 2 vectors
   NREBOOT  =      0    no. of reboots
   NMIN     =      0    reboot dimension
   EREF     =   0.00    reference energy to select bands
   IMIX   =      4    mixing-type and parameters
     AMIX     =   0.40;   BMIX     =  1.00
     AMIX_MAG =   1.60;   BMIX_MAG =  1.00
     AMIN     =   0.10
     WC   =   100.;   INIMIX=   1;  MIXPRE=   1;  MAXMIX= -45

 Intra band minimization:
   WEIMIN = 0.0000     energy-eigenvalue tresh-hold
   EBREAK =  0.16E-06  absolut break condition
   DEPER  =   0.30     relativ break condition  

   TIME   =   0.20     timestep for ELM

  volume/ion in A,a.u.               =      54.77       369.63
  Fermi-wavevector in a.u.,A,eV,Ry     =   0.694932  1.313232  6.570676  0.482931
  Thomas-Fermi vector in A             =   1.777564
 
 Write flags
   LWAVE        =      T    write WAVECAR
   LDOWNSAMPLE  =      F    k-point downsampling of WAVECAR
   LCHARG       =      T    write CHGCAR
   LVTOT        =      F    write LOCPOT, total local potential
   LVHAR        =      F    write LOCPOT, Hartree potential only
   LELF         =      F    write electronic localiz. function (ELF)
   LORBIT       =     11    0 simple, 1 ext, 2 COOP (PROOUT), +10 PAW based schemes


 Dipole corrections
   LMONO  =      F    monopole corrections only (constant potential shift)
   LDIPOL =      T    correct potential (dipole corrections)
   IDIPOL =      3    1-x, 2-y, 3-z, 4-all directions 
   EPSILON=  1.0000000 bulk dielectric constant

 Exchange correlation treatment:
   GGA     =    PE    GGA type
   LEXCH   =     8    internal setting for exchange type
   VOSKOWN=      0    Vosko Wilk Nusair interpolation
   EXXOEP  =     0    0=HF, 1=EXX-LHF (local Hartree Fock) 2=EXX OEP
   LHFCALC =     T    Hartree Fock is set to
   LSYMGRAD=     F    symmetrize gradient (conserves proper symmetry)
   PRECFOCK=normal    Normal, Fast or Accurate (Low or Medium for compatibility)
   LRHFCALC=     F    long range Hartree Fock
   LRSCOR  =     F    long range correlation only (use DFT for short range part)
   LTHOMAS =     F    Thomas Fermi screening in HF
   LMODELHF=     F    short range full HF, long range fraction AEXX
   ENCUT4O =  -1.0   cutoff for four orbital integrals eV
   LMAXFOCK=     4    L truncation for augmentation on plane wave grid
   LMAXFOCKAE=  -1    L truncation for all-electron charge restoration on plane wave grid
   NMAXFOCKAE=   1    number of basis functions for all-electron charge restoration
   LFOCKAEDFT=     F  apply the AE augmentation even for DFT
   NKREDX  =     1    reduce k-point grid by
   NKREDY  =     1    reduce k-point grid by
   NKREDZ  =     1    reduce k-point grid by
   SHIFTRED=     F    shift reduced grid of Gamma
   HFKIDENT=     F    idential grid for each k-point
   ODDONLY =     F    use only odd q-grid points
   EVENONLY=     F    use only even q-grid points
   HFALPHA =   -1.0000 decay constant for conv. correction
   MCALPHA =    0.0000 extent of test-charge in conv. correction in multipole expansion
   AEXX    =    0.2500 exact exchange contribution
   HFSCREEN=    0.2000 screening length (either q_TF or 0.3 A-1)
   HFSCREENC=   0.2000 screening length for correlation (either q_TF or 0.3 A-1)
   HFRCUT  =    0.0000 spherical cutoff for potential kernel
   ALDAX   =    0.7500 LDA exchange part
   AGGAX   =    0.7500 GGA exchange part
   ALDAC   =    1.0000 LDA correlation
   AGGAC   =    1.0000 GGA correlation
   ENCUTFOCK=  -1.0 apply spherical cutoff to Coloumb kernel
   NBANDSGWLOW=     1    first orbital included in HF term
   NBLOCK_FOCK=    64    blocking factor in FOCK_ACC
 Linear response parameters
   LEPSILON=     F    determine dielectric tensor
   LRPA    =     F    only Hartree local field effects (RPA)
   LNABLA  =     F    use nabla operator in PAW spheres
   LVEL    =     F    velocity operator in full k-point grid
   LINTERFAST=   F  fast interpolation
   KINTER  =     0    interpolate to denser k-point grid
   CSHIFT  =0.1000    complex shift for real part using Kramers Kronig
   OMEGAMAX=  -1.0    maximum frequency
   DEG_THRESHOLD= 0.2000000E-02 threshold for treating states as degnerate
   RTIME   =   -0.100 relaxation time in fs
  (WPLASMAI=    0.000 imaginary part of plasma frequency in eV, 0.658/RTIME)
   DFIELD  = 0.0000000 0.0000000 0.0000000 field for delta impulse in time
 
 Orbital magnetization related:
   ORBITALMAG=     F  switch on orbital magnetization
   LCHIMAG   =     F  perturbation theory with respect to B field
   DQ        =  0.001000  dq finite difference perturbation B field
   LLRAUG    =     F  two centre corrections for induced B field



--------------------------------------------------------------------------------------------------------


 Static calculation
 charge density and potential will be updated during run
 spin polarized calculation
 Conjugate gradient for all bands (Freysoldt, et al. PRB 79, 241103 (2009))
 perform sub-space diagonalisation
    before iterative eigenvector-optimisation
 modified Broyden-mixing scheme, WC =      100.0
 initial mixing is a Kerker type mixing with AMIX =  0.4000 and BMIX =      1.0000
 Hartree-type preconditioning will be used
 using additional bands           33
 reciprocal scheme for non local part
 use partial core corrections
 no Harris-corrections to forces 
 use gradient corrections 
 use of overlap-Matrix (Vanderbilt PP)
 Gauss-broadening in eV      SIGMA  =   0.10


--------------------------------------------------------------------------------------------------------


  energy-cutoff  :      500.00
  volume of cell :     3176.90
      direct lattice vectors                 reciprocal lattice vectors
    12.762070748 -0.004507872 -0.000137787     0.078357203  0.000036886 -0.000016260
    -0.005877511 12.485597481  0.000209277     0.000028291  0.080092295  0.000023322
     0.004139896 -0.005807194 19.937588806     0.000000541 -0.000000840  0.050156516

  length of vectors
    12.762071544 12.485598867 19.937590081     0.078357213  0.080092304  0.050156516


 
 old parameters found on file WAVECAR:
  energy-cutoff  :      500.00
  volume of cell :     3176.90
      direct lattice vectors                 reciprocal lattice vectors
    12.668300000  0.000000000  0.000000000     0.078937190  0.000009093 -0.000016943
    -0.001435819 12.464599917  0.000000000     0.000000000  0.080227204  0.000024362
     0.004319056 -0.006109387 20.118998609     0.000000000  0.000000000  0.049704263

  length of vectors

 
 k-points in units of 2pi/SCALE and weight: KPOINTS created by Atomic Simulation Env
   0.01959637  0.02003230  0.00000177       0.500
  -0.01958223  0.02001385  0.00000990       0.500
 
 k-points in reciprocal lattice and weights: KPOINTS created by Atomic Simulation Env
   0.25000000  0.25000000  0.00000000       0.500
  -0.25000000  0.25000000  0.00000000       0.500
 
 position of ions in fractional coordinates (direct lattice) 
   0.22081204  0.00051755  0.50001818
   0.05504638  0.10072165  0.50001495
   0.10980856  0.00025245  0.50000909
   0.27681530  0.10027252  0.49999966
   0.22326954  0.20072282  0.49997205
   0.05449995  0.29999943  0.50001778
   0.11091040  0.20056103  0.50000941
   0.28161201  0.30000936  0.49988043
   0.22286519  0.39914571  0.49990240
   0.05447431  0.49948176  0.50001459
   0.11111019  0.39968726  0.49999197
   0.27934391  0.49890965  0.49984216
   0.22375542  0.59965748  0.49994779
   0.05492551  0.69945183  0.50002385
   0.11163806  0.59946016  0.50000863
   0.28145273  0.70019646  0.49997734
   0.22281979  0.79961206  0.50001546
   0.05520363  0.89943288  0.50000360
   0.11084554  0.79944737  0.50001233
   0.27607628  0.90057895  0.50002524
   0.55451589  0.00056826  0.50003763
   0.38837061  0.10004098  0.49999310
   0.44343206  0.00086943  0.50003650
   0.61115254  0.09869741  0.49999862
   0.55660094  0.19647401  0.49990318
   0.44433287  0.19850230  0.49989572
   0.55511131  0.80494768  0.50002094
   0.38716916  0.90219234  0.50003696
   0.44258604  0.80409274  0.50001314
   0.61083050  0.90244986  0.50004130
   0.88904485  0.99995105  0.50001019
   0.72237273  0.09896305  0.50000398
   0.77813159  0.99969472  0.50002050
   0.94341519  0.10061444  0.50001654
   0.88721623  0.20023633  0.50001337
   0.71525764  0.29766551  0.49989062
   0.77512837  0.19942677  0.49997991
   0.94257367  0.29998121  0.50001990
   0.88487838  0.39913443  0.49999199
   0.71712631  0.49931991  0.49982422
   0.77241926  0.39819436  0.49990253
   0.94190825  0.49928595  0.50001536
   0.88574785  0.59944858  0.50001151
   0.71683064  0.70047457  0.49998474
   0.77392977  0.60037755  0.49995251
   0.94301228  0.69943062  0.50002503
   0.88755417  0.79953654  0.50001263
   0.72217644  0.90036535  0.50002816
   0.77559142  0.79983799  0.50001830
   0.94368622  0.89940816  0.50000328
   0.39372390  0.30025182  0.49978982
   0.38898510  0.49613450  0.49967307
   0.39279418  0.70241349  0.49994853
   0.60550156  0.70454825  0.49996409
   0.60700564  0.29389643  0.49980947
   0.61271835  0.50045312  0.49961977
   0.50179199  0.40845271  0.49960544
   0.50246135  0.58808919  0.49967053
 
 position of ions in cartesian coordinates  (Angst):
   2.82008583  0.00256288  9.96912655
   0.70398380  1.25441811  9.96910601
   1.40345308 -0.00024665  9.96896062
   3.53421704  1.24781093  9.96877046
   2.85027173  2.50223437  9.96824838
   0.69583893  3.74252269  9.96920419
   1.41633750  2.50072062  9.96900863
   3.59425858  3.74162368  9.96643449
   2.84394492  4.97966506  9.96690140
   0.69433930  6.23317899  9.96918224
   1.41771684  4.98692985  9.96870272
   3.56414365  6.22502312  9.96571335
   2.85412777  7.48316991  9.96784807
   0.69892230  8.72992267  9.96940868
   1.42327953  7.48121138  9.96907653
   3.58987405  8.73819898  9.96845043
   2.84101220  9.97972614  9.96923929
   0.70129619 11.22680440  9.96904674
   1.41198987  9.97817472  9.96919227
   3.52008193 11.24011804  9.96944808
   7.07883773  0.00169162  9.96946837
   4.95789517  1.24441710  9.96862423
   5.66117631  0.00595263  9.96946113
   7.80106182  1.22663755  9.96870343
   7.10429535  2.44768323  9.96682843
   5.67151038  2.47351381  9.96669554
   7.08170872 10.04484661  9.96930388
   4.93784763 11.25976127  9.96966682
   5.64565833 10.03467944  9.96916376
   7.79222800 11.26196831  9.96972252
  11.34224607 12.47807492  9.96908442
   9.22046014  1.22945283  9.96879501
   9.92676474 12.47537447  9.96930516
  12.04141006  1.24907497  9.96901515
  11.32360946  2.49316712  9.96898061
   9.12848857  3.71040455  9.96657737
   9.89314083  2.48356471  9.96832871
  12.02949876  3.73829187  9.96912413
  11.29260445  4.97653937  9.96859624
   9.15115116  6.22817217  9.96529543
   9.85739839  4.96530949  9.96682803
  12.01983513  6.22673370  9.96907541
  11.30252348  7.47757717  9.96902734
   9.14619620  8.73970861  9.96853802
   9.87548749  7.48968036  9.96786658
  12.03274861  8.72565449  9.96930987
  11.32439988  9.97578682  9.96909115
   9.21324503 11.23544014  9.96944485
   9.89552152  9.98005520  9.96921969
  12.04017397 11.22249064  9.96891797
   5.02503666  3.74414610  9.96461259
   4.96340794  6.18988049  9.96232635
   5.01080843  8.76537819  9.96786116
   7.72538249  8.79107299  9.96814254
   7.74699067  3.66383374  9.96497363
   7.81868190  6.24279282  9.96123377
   6.40357249  5.09461279  9.96094416
   6.41105939  7.33747823  9.96227935
 


--------------------------------------------------------------------------------------------------------


 k-point  1 :   0.2500 0.2500 0.0000  plane waves:   80598
 k-point  2 :  -0.2500 0.2500 0.0000  plane waves:   80620

 maximum and minimum number of plane-waves per node :      2569     2488

 maximum number of plane-waves:     80620
 maximum index in each direction: 
   IXMAX=   23   IYMAX=   22   IZMAX=   36
   IXMIN=  -23   IYMIN=  -23   IZMIN=  -36


 parallel 3D FFT for wavefunctions:
    minimum data exchange during FFTs selected (reduces bandwidth)
 parallel 3D FFT for charge:
    minimum data exchange during FFTs selected (reduces bandwidth)


 FFT grid for exact exchange (Hartree Fock) 
  NGX = 70; NGY = 70; NGZ =112

 
 Radii for the augmentation spheres in the non-local exchange
 for species   1 augmentation radius   0.874 (default was   0.699)
       energy cutoff for augmentation   2000.0
 for species   2 augmentation radius   0.886 (default was   0.709)
       energy cutoff for augmentation   2000.0
 for species   3 augmentation radius   1.307 (default was   1.045)
       energy cutoff for augmentation   2000.0
 for species   4 augmentation radius   1.263 (default was   1.010)
       energy cutoff for augmentation   2000.0

 real space projection operators:
  total allocation   :       2469.12 KBytes
  max/ min on nodes  :        129.86         38.11

 Maximum index for augmentation-charges in exchange          136
  SETUP_FOCK is finished

 total amount of memory used by VASP MPI-rank0   165789. kBytes
=======================================================================

   base      :      30000. kBytes
   nonl-proj :       5360. kBytes
   fftplans  :      14250. kBytes
   grid      :      36827. kBytes
   one-center:         62. kBytes
   HF        :         23. kBytes
   nonlr-proj:       1804. kBytes
   wavefun   :      77463. kBytes
 
     INWAV:  cpu time    3.5331: real time    3.5336
 Broyden mixing: mesh for mixing (old mesh)
   NGX = 47   NGY = 45   NGZ = 73
  (NGX  =192   NGY  =192   NGZ  =300)
  gives a total of 154395 points

 charge density for first step will be calculated from the start-wavefunctions


--------------------------------------------------------------------------------------------------------


 Maximum index for augmentation-charges          790 (set IRDMAX)


--------------------------------------------------------------------------------------------------------


 initial charge from wavefunction
 First call to EWALD:  gamma=   0.121
 Maximum number of real-space cells 3x 3x 2
 Maximum number of reciprocal cells 2x 2x 4

    FEWALD:  cpu time    0.0038: real time    0.0038


--------------------------------------- Iteration      1(   1)  ---------------------------------------


    POTLOK:  cpu time    1.3777: real time    1.3781
    SETDIJ:  cpu time    2.0924: real time    2.0932
    TRIAL :  cpu time  517.7896: real time  517.9380
    CORREC:  cpu time    0.0022: real time    0.0025
    CHARGE:  cpu time    1.6661: real time    1.6662
    --------------------------------------------
      LOOP:  cpu time  522.9442: real time  523.0966

 eigenvalue-minimisations  :     0
 total energy-change (2. order) :-0.6047086E+03  (-0.4962127E+00)
 number of electron     242.9999996 magnetization       2.9292391
 augmentation part       14.5510110 magnetization       2.0025263

 DIPCOR: dipole corrections for dipol
 direction  3 min pos     1,
 dipolmoment           0.000000     -0.000000      0.000389 electrons x Angstroem
 Tr[quadrupol]     -6679.817002

 energy correction for charged system         0.000000 eV
 dipol+quadrupol energy correction            0.000000 eV
 added-field ion interaction          0.000000 eV  (added to PSCEN)


 Free energy of the ion-electron system (eV)
  ---------------------------------------------------
  alpha Z        PSCENC =        98.33027723
  Ewald energy   TEWEN  =     38731.66053943
  -Hartree energ DENC   =    -47152.91763430
  -exchange      EXHF   =       542.95026615
  -V(xc)+E(xc)   XCENC  =       613.44825419
  PAW double counting   =     26080.07584677   -26167.03394213
  entropy T*S    EENTRO =        -0.01074735
  eigenvalues    EBANDS =     -3122.60760886
  atomic energy  EATOM  =      9771.40124162
  ---------------------------------------------------
  free energy    TOTEN  =      -604.70863754 eV

  energy without entropy =     -604.69789019  energy(sigma->0) =     -604.70326387
  exchange ACFDT corr.  =        -0.01615333  see jH, gK, PRB 81, 115126


--------------------------------------------------------------------------------------------------------




--------------------------------------- Iteration      1(   2)  ---------------------------------------


    POTLOK:  cpu time    1.3873: real time    1.3875
    SETDIJ:  cpu time    2.0867: real time    2.0869
    TRIAL :  cpu time  517.0798: real time  517.1868
    CORREC:  cpu time    0.0022: real time    0.0025
    CHARGE:  cpu time    1.6656: real time    1.6657
    --------------------------------------------
      LOOP:  cpu time  522.2246: real time  522.3323

 eigenvalue-minimisations  :     0
 total energy-change (2. order) :-0.3642566E+00  (-0.4543085E+00)
 number of electron     242.9999996 magnetization       2.9656367
 augmentation part       14.5066568 magnetization       2.0763582

 DIPCOR: dipole corrections for dipol
 direction  3 min pos     1,
 dipolmoment           0.000000     -0.000000      0.000370 electrons x Angstroem
 Tr[quadrupol]     -6679.634922

 energy correction for charged system         0.000000 eV
 dipol+quadrupol energy correction            0.000000 eV
 added-field ion interaction          0.000000 eV  (added to PSCEN)


 Free energy of the ion-electron system (eV)
  ---------------------------------------------------
  alpha Z        PSCENC =        98.33027723
  Ewald energy   TEWEN  =     38731.66053943
  -Hartree energ DENC   =    -47139.02590890
  -exchange      EXHF   =       542.85384728
  -V(xc)+E(xc)   XCENC  =       613.11007434
  PAW double counting   =     26199.28117247   -26286.30279837
  entropy T*S    EENTRO =        -0.00590135
  eigenvalues    EBANDS =     -3136.37059188
  atomic energy  EATOM  =      9771.40124162
  ---------------------------------------------------
  free energy    TOTEN  =      -605.07289414 eV

  energy without entropy =     -605.06699279  energy(sigma->0) =     -605.06994347
  exchange ACFDT corr.  =        -0.01048512  see jH, gK, PRB 81, 115126


--------------------------------------------------------------------------------------------------------




--------------------------------------- Iteration      1(   3)  ---------------------------------------


    POTLOK:  cpu time    1.3985: real time    1.3989
    SETDIJ:  cpu time    2.0846: real time    2.0848
    TRIAL :  cpu time  515.7942: real time  515.9179
    CORREC:  cpu time    0.0021: real time    0.0024
    CHARGE:  cpu time    1.6623: real time    1.6626
    --------------------------------------------
      LOOP:  cpu time  520.9444: real time  521.0691

 eigenvalue-minimisations  :     0
 total energy-change (2. order) :-0.3286543E+00  (-0.2473952E+00)
 number of electron     242.9999996 magnetization       2.9858342
 augmentation part       14.5096518 magnetization       2.1363235

 DIPCOR: dipole corrections for dipol
 direction  3 min pos     1,
 dipolmoment           0.000000     -0.000000      0.000670 electrons x Angstroem
 Tr[quadrupol]     -6679.429578

 energy correction for charged system         0.000000 eV
 dipol+quadrupol energy correction            0.000000 eV
 added-field ion interaction          0.000000 eV  (added to PSCEN)


 Free energy of the ion-electron system (eV)
  ---------------------------------------------------
  alpha Z        PSCENC =        98.33027724
  Ewald energy   TEWEN  =     38731.66053943
  -Hartree energ DENC   =    -47119.71286031
  -exchange      EXHF   =       542.71287390
  -V(xc)+E(xc)   XCENC  =       612.65642428
  PAW double counting   =     26349.09136319   -26434.82269682
  entropy T*S    EENTRO =        -0.00273234
  eigenvalues    EBANDS =     -3156.71280964
  atomic energy  EATOM  =      9771.40124162
  ---------------------------------------------------
  free energy    TOTEN  =      -605.40154845 eV

  energy without entropy =     -605.39881611  energy(sigma->0) =     -605.40018228
  exchange ACFDT corr.  =        -0.00535064  see jH, gK, PRB 81, 115126


--------------------------------------------------------------------------------------------------------




--------------------------------------- Iteration      1(   4)  ---------------------------------------


    POTLOK:  cpu time    1.4050: real time    1.4052
    SETDIJ:  cpu time    2.1156: real time    2.1158
    TRIAL :  cpu time  515.9773: real time  516.0998
    CORREC:  cpu time    0.0019: real time    0.0022
    CHARGE:  cpu time    1.6561: real time    1.6564
    --------------------------------------------
      LOOP:  cpu time  521.1581: real time  521.2815

 eigenvalue-minimisations  :     0
 total energy-change (2. order) :-0.1893243E+00  (-0.1529049E+00)
 number of electron     242.9999996 magnetization       2.9953201
 augmentation part       14.5161335 magnetization       2.1836593

 DIPCOR: dipole corrections for dipol
 direction  3 min pos     1,
 dipolmoment           0.000000     -0.000000      0.000745 electrons x Angstroem
 Tr[quadrupol]     -6679.364879

 energy correction for charged system         0.000000 eV
 dipol+quadrupol energy correction            0.000000 eV
 added-field ion interaction          0.000000 eV  (added to PSCEN)


 Free energy of the ion-electron system (eV)
  ---------------------------------------------------
  alpha Z        PSCENC =        98.33027724
  Ewald energy   TEWEN  =     38731.66053943
  -Hartree energ DENC   =    -47113.91703306
  -exchange      EXHF   =       542.84539119
  -V(xc)+E(xc)   XCENC  =       612.52317084
  PAW double counting   =     26485.87012771   -26571.79529208
  entropy T*S    EENTRO =        -0.00101846
  eigenvalues    EBANDS =     -3162.50656333
  atomic energy  EATOM  =      9771.40124162
  ---------------------------------------------------
  free energy    TOTEN  =      -605.59087279 eV

  energy without entropy =     -605.58985434  energy(sigma->0) =     -605.59036356
  exchange ACFDT corr.  =        -0.00229065  see jH, gK, PRB 81, 115126


--------------------------------------------------------------------------------------------------------




--------------------------------------- Iteration      1(   5)  ---------------------------------------


    POTLOK:  cpu time    1.4022: real time    1.4024
    SETDIJ:  cpu time    2.0867: real time    2.0870
    TRIAL :  cpu time  515.5581: real time  515.6643
    CORREC:  cpu time    0.0019: real time    0.0022
    CHARGE:  cpu time    1.6572: real time    1.6573
    --------------------------------------------
      LOOP:  cpu time  520.7086: real time  520.8158

 eigenvalue-minimisations  :     0
 total energy-change (2. order) :-0.1209445E+00  (-0.1055977E+00)
 number of electron     242.9999996 magnetization       2.9987627
 augmentation part       14.5103519 magnetization       2.2231317

 DIPCOR: dipole corrections for dipol
 direction  3 min pos     1,
 dipolmoment           0.000000     -0.000000      0.000840 electrons x Angstroem
 Tr[quadrupol]     -6679.397905

 energy correction for charged system         0.000000 eV
 dipol+quadrupol energy correction            0.000000 eV
 added-field ion interaction          0.000000 eV  (added to PSCEN)


 Free energy of the ion-electron system (eV)
  ---------------------------------------------------
  alpha Z        PSCENC =        98.33027724
  Ewald energy   TEWEN  =     38731.66053943
  -Hartree energ DENC   =    -47115.42364443
  -exchange      EXHF   =       543.12999374
  -V(xc)+E(xc)   XCENC  =       612.59346832
  PAW double counting   =     26586.97865193   -26673.22823607
  entropy T*S    EENTRO =        -0.00030507
  eigenvalues    EBANDS =     -3161.15309059
  atomic energy  EATOM  =      9771.40124162
  ---------------------------------------------------
  free energy    TOTEN  =      -605.71181726 eV

  energy without entropy =     -605.71151219  energy(sigma->0) =     -605.71166473
  exchange ACFDT corr.  =        -0.00077997  see jH, gK, PRB 81, 115126


--------------------------------------------------------------------------------------------------------




--------------------------------------- Iteration      1(   6)  ---------------------------------------


    POTLOK:  cpu time    1.4003: real time    1.4004
    SETDIJ:  cpu time    2.0837: real time    2.0840
    TRIAL :  cpu time  516.3129: real time  516.4555
    CORREC:  cpu time    0.0019: real time    0.0022
    CHARGE:  cpu time    1.6596: real time    1.6597
    --------------------------------------------
      LOOP:  cpu time  521.4613: real time  521.6047

 eigenvalue-minimisations  :     0
 total energy-change (2. order) :-0.8976052E-01  (-0.7651803E-01)
 number of electron     242.9999996 magnetization       2.9996885
 augmentation part       14.5121022 magnetization       2.2556756

 DIPCOR: dipole corrections for dipol
 direction  3 min pos     1,
 dipolmoment           0.000000     -0.000000      0.001008 electrons x Angstroem
 Tr[quadrupol]     -6679.453963

 energy correction for charged system         0.000000 eV
 dipol+quadrupol energy correction            0.000000 eV
 added-field ion interaction          0.000000 eV  (added to PSCEN)


 Free energy of the ion-electron system (eV)
  ---------------------------------------------------
  alpha Z        PSCENC =        98.33027725
  Ewald energy   TEWEN  =     38731.66053943
  -Hartree energ DENC   =    -47117.77346728
  -exchange      EXHF   =       543.41933194
  -V(xc)+E(xc)   XCENC  =       612.70791904
  PAW double counting   =     26652.09312210   -26738.17101653
  entropy T*S    EENTRO =        -0.00008644
  eigenvalues    EBANDS =     -3159.46922029
  atomic energy  EATOM  =      9771.40124162
  ---------------------------------------------------
  free energy    TOTEN  =      -605.80157778 eV

  energy without entropy =     -605.80149135  energy(sigma->0) =     -605.80153456
  exchange ACFDT corr.  =        -0.00020338  see jH, gK, PRB 81, 115126


--------------------------------------------------------------------------------------------------------




--------------------------------------- Iteration      1(   7)  ---------------------------------------


    POTLOK:  cpu time    1.3977: real time    1.3979
    SETDIJ:  cpu time    2.0813: real time    2.0818
    TRIAL :  cpu time  516.2353: real time  516.3484
    CORREC:  cpu time    0.0018: real time    0.0021
    CHARGE:  cpu time    1.6570: real time    1.6573
    --------------------------------------------
      LOOP:  cpu time  521.3756: real time  521.4899

 eigenvalue-minimisations  :     0
 total energy-change (2. order) :-0.6698966E-01  (-0.5924740E-01)
 number of electron     242.9999996 magnetization       2.9999182
 augmentation part       14.5220039 magnetization       2.2843475

 DIPCOR: dipole corrections for dipol
 direction  3 min pos     1,
 dipolmoment           0.000000     -0.000000      0.001105 electrons x Angstroem
 Tr[quadrupol]     -6679.504199

 energy correction for charged system         0.000000 eV
 dipol+quadrupol energy correction            0.000000 eV
 added-field ion interaction          0.000000 eV  (added to PSCEN)


 Free energy of the ion-electron system (eV)
  ---------------------------------------------------
  alpha Z        PSCENC =        98.33027726
  Ewald energy   TEWEN  =     38731.66053943
  -Hartree energ DENC   =    -47120.69286956
  -exchange      EXHF   =       543.66928499
  -V(xc)+E(xc)   XCENC  =       612.83063611
  PAW double counting   =     26691.98588986   -26778.03395815
  entropy T*S    EENTRO =        -0.00002559
  eigenvalues    EBANDS =     -3157.01952255
  atomic energy  EATOM  =      9771.40124162
  ---------------------------------------------------
  free energy    TOTEN  =      -605.86856744 eV

  energy without entropy =     -605.86854184  energy(sigma->0) =     -605.86855464
  exchange ACFDT corr.  =        -0.00004920  see jH, gK, PRB 81, 115126


--------------------------------------------------------------------------------------------------------




--------------------------------------- Iteration      1(   8)  ---------------------------------------


    POTLOK:  cpu time    1.3961: real time    1.3962
    SETDIJ:  cpu time    2.0847: real time    2.0849
    TRIAL :  cpu time  516.1367: real time  516.2387
    CORREC:  cpu time    0.0018: real time    0.0021
    CHARGE:  cpu time    1.6546: real time    1.6548
    --------------------------------------------
      LOOP:  cpu time  521.2761: real time  521.3789

 eigenvalue-minimisations  :     0
 total energy-change (2. order) :-0.5327367E-01  (-0.4698943E-01)
 number of electron     242.9999996 magnetization       2.9999791
 augmentation part       14.5283338 magnetization       2.3119894

 DIPCOR: dipole corrections for dipol
 direction  3 min pos     1,
 dipolmoment           0.000000     -0.000000      0.001130 electrons x Angstroem
 Tr[quadrupol]     -6679.536821

 energy correction for charged system         0.000000 eV
 dipol+quadrupol energy correction            0.000000 eV
 added-field ion interaction          0.000000 eV  (added to PSCEN)


 Free energy of the ion-electron system (eV)
  ---------------------------------------------------
  alpha Z        PSCENC =        98.33027726
  Ewald energy   TEWEN  =     38731.66053943
  -Hartree energ DENC   =    -47123.39369631
  -exchange      EXHF   =       543.86308774
  -V(xc)+E(xc)   XCENC  =       612.93613494
  PAW double counting   =     26715.38310213   -26801.64983837
  entropy T*S    EENTRO =        -0.00000773
  eigenvalues    EBANDS =     -3154.45266396
  atomic energy  EATOM  =      9771.40124162
  ---------------------------------------------------
  free energy    TOTEN  =      -605.92184110 eV

  energy without entropy =     -605.92183337  energy(sigma->0) =     -605.92183724
  exchange ACFDT corr.  =        -0.00001251  see jH, gK, PRB 81, 115126


--------------------------------------------------------------------------------------------------------




--------------------------------------- Iteration      1(   9)  ---------------------------------------


    POTLOK:  cpu time    1.3913: real time    1.3914
    SETDIJ:  cpu time    2.0816: real time    2.0820
    TRIAL :  cpu time  515.5942: real time  515.6835
    CORREC:  cpu time    0.0017: real time    0.0020
    CHARGE:  cpu time    1.6574: real time    1.6576
    --------------------------------------------
      LOOP:  cpu time  520.7291: real time  520.8217

 eigenvalue-minimisations  :     0
 total energy-change (2. order) :-0.4309219E-01  (-0.3914506E-01)
 number of electron     242.9999995 magnetization       2.9999952
 augmentation part       14.5284780 magnetization       2.3393373

 DIPCOR: dipole corrections for dipol
 direction  3 min pos     1,
 dipolmoment           0.000000     -0.000000      0.001157 electrons x Angstroem
 Tr[quadrupol]     -6679.548510

 energy correction for charged system         0.000000 eV
 dipol+quadrupol energy correction            0.000000 eV
 added-field ion interaction          0.000000 eV  (added to PSCEN)


 Free energy of the ion-electron system (eV)
  ---------------------------------------------------
  alpha Z        PSCENC =        98.33027726
  Ewald energy   TEWEN  =     38731.66053943
  -Hartree energ DENC   =    -47124.55376326
  -exchange      EXHF   =       543.99704934
  -V(xc)+E(xc)   XCENC  =       613.00048910
  PAW double counting   =     26727.76516133   -26814.18533832
  entropy T*S    EENTRO =        -0.00000240
  eigenvalues    EBANDS =     -3153.38058205
  atomic energy  EATOM  =      9771.40124162
  ---------------------------------------------------
  free energy    TOTEN  =      -605.96493329 eV

  energy without entropy =     -605.96493089  energy(sigma->0) =     -605.96493209
  exchange ACFDT corr.  =        -0.00000328  see jH, gK, PRB 81, 115126


--------------------------------------------------------------------------------------------------------




--------------------------------------- Iteration      1(  10)  ---------------------------------------


    POTLOK:  cpu time    1.3850: real time    1.3852
    SETDIJ:  cpu time    2.1114: real time    2.1119
    TRIAL :  cpu time  516.0106: real time  516.0997
    CORREC:  cpu time    0.0014: real time    0.0017
    CHARGE:  cpu time    1.6566: real time    1.6567
    --------------------------------------------
      LOOP:  cpu time  521.1681: real time  521.2582

 eigenvalue-minimisations  :     0
 total energy-change (2. order) :-0.3645318E-01  (-0.3334516E-01)
 number of electron     242.9999995 magnetization       2.9999991
 augmentation part       14.5276257 magnetization       2.3661706

 DIPCOR: dipole corrections for dipol
 direction  3 min pos     1,
 dipolmoment           0.000000     -0.000000      0.001205 electrons x Angstroem
 Tr[quadrupol]     -6679.546577

 energy correction for charged system         0.000000 eV
 dipol+quadrupol energy correction            0.000000 eV
 added-field ion interaction          0.000000 eV  (added to PSCEN)


 Free energy of the ion-electron system (eV)
  ---------------------------------------------------
  alpha Z        PSCENC =        98.33027727
  Ewald energy   TEWEN  =     38731.66053943
  -Hartree energ DENC   =    -47124.34230096
  -exchange      EXHF   =       544.08822921
  -V(xc)+E(xc)   XCENC  =       613.03022446
  PAW double counting   =     26733.57745778   -26820.00290924
  entropy T*S    EENTRO =        -0.00000081
  eigenvalues    EBANDS =     -3153.74414364
  atomic energy  EATOM  =      9771.40124162
  ---------------------------------------------------
  free energy    TOTEN  =      -606.00138647 eV

  energy without entropy =     -606.00138566  energy(sigma->0) =     -606.00138606
  exchange ACFDT corr.  =        -0.00000091  see jH, gK, PRB 81, 115126


--------------------------------------------------------------------------------------------------------




--------------------------------------- Iteration      1(  11)  ---------------------------------------


    POTLOK:  cpu time    1.3813: real time    1.3817
    SETDIJ:  cpu time    2.0799: real time    2.0801
    TRIAL :  cpu time  515.9797: real time  516.0784
    CORREC:  cpu time    0.0015: real time    0.0018
    CHARGE:  cpu time    1.6615: real time    1.6618
    --------------------------------------------
      LOOP:  cpu time  521.1068: real time  521.2067

 eigenvalue-minimisations  :     0
 total energy-change (2. order) :-0.3132750E-01  (-0.2892074E-01)
 number of electron     242.9999995 magnetization       2.9999999
 augmentation part       14.5285754 magnetization       2.3922018

 DIPCOR: dipole corrections for dipol
 direction  3 min pos     1,
 dipolmoment           0.000000     -0.000000      0.001249 electrons x Angstroem
 Tr[quadrupol]     -6679.541910

 energy correction for charged system         0.000000 eV
 dipol+quadrupol energy correction            0.000000 eV
 added-field ion interaction          0.000000 eV  (added to PSCEN)


 Free energy of the ion-electron system (eV)
  ---------------------------------------------------
  alpha Z        PSCENC =        98.33027727
  Ewald energy   TEWEN  =     38731.66053943
  -Hartree energ DENC   =    -47123.84949021
  -exchange      EXHF   =       544.16044843
  -V(xc)+E(xc)   XCENC  =       613.04861267
  PAW double counting   =     26736.41365043   -26822.83449605
  entropy T*S    EENTRO =        -0.00000031
  eigenvalues    EBANDS =     -3154.36349676
  atomic energy  EATOM  =      9771.40124162
  ---------------------------------------------------
  free energy    TOTEN  =      -606.03271397 eV

  energy without entropy =     -606.03271367  energy(sigma->0) =     -606.03271382
  exchange ACFDT corr.  =        -0.00000028  see jH, gK, PRB 81, 115126


--------------------------------------------------------------------------------------------------------




--------------------------------------- Iteration      1(  12)  ---------------------------------------


    POTLOK:  cpu time    1.3805: real time    1.3808
    SETDIJ:  cpu time    2.0826: real time    2.0828
    TRIAL :  cpu time  515.8788: real time  515.9596
    CORREC:  cpu time    0.0016: real time    0.0018
    CHARGE:  cpu time    1.6608: real time    1.6610
    --------------------------------------------
      LOOP:  cpu time  521.0074: real time  521.0891

 eigenvalue-minimisations  :     0
 total energy-change (2. order) :-0.2739026E-01  (-0.2541642E-01)
 number of electron     242.9999995 magnetization       3.0000001
 augmentation part       14.5301403 magnetization       2.4171186

 DIPCOR: dipole corrections for dipol
 direction  3 min pos     1,
 dipolmoment           0.000000     -0.000000      0.001280 electrons x Angstroem
 Tr[quadrupol]     -6679.539871

 energy correction for charged system         0.000000 eV
 dipol+quadrupol energy correction            0.000000 eV
 added-field ion interaction          0.000000 eV  (added to PSCEN)


 Free energy of the ion-electron system (eV)
  ---------------------------------------------------
  alpha Z        PSCENC =        98.33027727
  Ewald energy   TEWEN  =     38731.66053943
  -Hartree energ DENC   =    -47123.64512825
  -exchange      EXHF   =       544.22704755
  -V(xc)+E(xc)   XCENC  =       613.06858653
  PAW double counting   =     26738.33377836   -26824.80894986
  entropy T*S    EENTRO =        -0.00000013
  eigenvalues    EBANDS =     -3154.62749658
  atomic energy  EATOM  =      9771.40124162
  ---------------------------------------------------
  free energy    TOTEN  =      -606.06010424 eV

  energy without entropy =     -606.06010411  energy(sigma->0) =     -606.06010417
  exchange ACFDT corr.  =        -0.00000010  see jH, gK, PRB 81, 115126


--------------------------------------------------------------------------------------------------------




--------------------------------------- Iteration      1(  13)  ---------------------------------------


    POTLOK:  cpu time    1.3739: real time    1.3740
    SETDIJ:  cpu time    2.0808: real time    2.0811
    TRIAL :  cpu time  515.5655: real time  515.6478
    CORREC:  cpu time    0.0015: real time    0.0019
    CHARGE:  cpu time    1.6645: real time    1.6647
    --------------------------------------------
      LOOP:  cpu time  520.6889: real time  520.7721

 eigenvalue-minimisations  :     0
 total energy-change (2. order) :-0.2416372E-01  (-0.2249204E-01)
 number of electron     242.9999995 magnetization       3.0000001
 augmentation part       14.5311098 magnetization       2.4407162

 DIPCOR: dipole corrections for dipol
 direction  3 min pos     1,
 dipolmoment           0.000000     -0.000000      0.001302 electrons x Angstroem
 Tr[quadrupol]     -6679.539849

 energy correction for charged system         0.000000 eV
 dipol+quadrupol energy correction            0.000000 eV
 added-field ion interaction          0.000000 eV  (added to PSCEN)


 Free energy of the ion-electron system (eV)
  ---------------------------------------------------
  alpha Z        PSCENC =        98.33027727
  Ewald energy   TEWEN  =     38731.66053943
  -Hartree energ DENC   =    -47123.60878479
  -exchange      EXHF   =       544.28996899
  -V(xc)+E(xc)   XCENC  =       613.08938883
  PAW double counting   =     26740.18380818   -26826.72908110
  entropy T*S    EENTRO =        -0.00000005
  eigenvalues    EBANDS =     -3154.70162626
  atomic energy  EATOM  =      9771.40124162
  ---------------------------------------------------
  free energy    TOTEN  =      -606.08426796 eV

  energy without entropy =     -606.08426791  energy(sigma->0) =     -606.08426793
  exchange ACFDT corr.  =        -0.00000004  see jH, gK, PRB 81, 115126


--------------------------------------------------------------------------------------------------------




--------------------------------------- Iteration      1(  14)  ---------------------------------------


    POTLOK:  cpu time    1.3710: real time    1.3711
    SETDIJ:  cpu time    2.1084: real time    2.1087
    TRIAL :  cpu time  516.1140: real time  516.2143
    CORREC:  cpu time    0.0013: real time    0.0017
    CHARGE:  cpu time    1.6621: real time    1.6623
    --------------------------------------------
      LOOP:  cpu time  521.2601: real time  521.3614

 eigenvalue-minimisations  :     0
 total energy-change (2. order) :-0.2143869E-01  (-0.1996289E-01)
 number of electron     242.9999995 magnetization       3.0000002
 augmentation part       14.5316021 magnetization       2.4629320

 DIPCOR: dipole corrections for dipol
 direction  3 min pos     1,
 dipolmoment           0.000000     -0.000000      0.001323 electrons x Angstroem
 Tr[quadrupol]     -6679.540203

 energy correction for charged system         0.000000 eV
 dipol+quadrupol energy correction            0.000000 eV
 added-field ion interaction          0.000000 eV  (added to PSCEN)


 Free energy of the ion-electron system (eV)
  ---------------------------------------------------
  alpha Z        PSCENC =        98.33027727
  Ewald energy   TEWEN  =     38731.66053943
  -Hartree energ DENC   =    -47123.55263682
  -exchange      EXHF   =       544.34822830
  -V(xc)+E(xc)   XCENC  =       613.10817292
  PAW double counting   =     26742.25449088   -26828.84874538
  entropy T*S    EENTRO =        -0.00000002
  eigenvalues    EBANDS =     -3154.80727482
  atomic energy  EATOM  =      9771.40124162
  ---------------------------------------------------
  free energy    TOTEN  =      -606.10570665 eV

  energy without entropy =     -606.10570663  energy(sigma->0) =     -606.10570664
  exchange ACFDT corr.  =        -0.00000002  see jH, gK, PRB 81, 115126


--------------------------------------------------------------------------------------------------------




--------------------------------------- Iteration      1(  15)  ---------------------------------------


    POTLOK:  cpu time    1.3696: real time    1.3699
    SETDIJ:  cpu time    2.0792: real time    2.0794
    TRIAL :  cpu time  516.1258: real time  516.2071
    CORREC:  cpu time    0.0014: real time    0.0018
    CHARGE:  cpu time    1.6625: real time    1.6628
    --------------------------------------------
      LOOP:  cpu time  521.2411: real time  521.3236

 eigenvalue-minimisations  :     0
 total energy-change (2. order) :-0.1904991E-01  (-0.1770173E-01)
 number of electron     242.9999995 magnetization       3.0000002
 augmentation part       14.5321192 magnetization       2.4838170

 DIPCOR: dipole corrections for dipol
 direction  3 min pos     1,
 dipolmoment           0.000000     -0.000000      0.001345 electrons x Angstroem
 Tr[quadrupol]     -6679.540325

 energy correction for charged system         0.000000 eV
 dipol+quadrupol energy correction            0.000000 eV
 added-field ion interaction          0.000000 eV  (added to PSCEN)


 Free energy of the ion-electron system (eV)
  ---------------------------------------------------
  alpha Z        PSCENC =        98.33027728
  Ewald energy   TEWEN  =     38731.66053943
  -Hartree energ DENC   =    -47123.45997689
  -exchange      EXHF   =       544.40175852
  -V(xc)+E(xc)   XCENC  =       613.12478314
  PAW double counting   =     26744.63470317   -26831.26251277
  entropy T*S    EENTRO =        -0.00000001
  eigenvalues    EBANDS =     -3154.95557004
  atomic energy  EATOM  =      9771.40124162
  ---------------------------------------------------
  free energy    TOTEN  =      -606.12475656 eV

  energy without entropy =     -606.12475655  energy(sigma->0) =     -606.12475655
  exchange ACFDT corr.  =        -0.00000001  see jH, gK, PRB 81, 115126


--------------------------------------------------------------------------------------------------------




--------------------------------------- Iteration      1(  16)  ---------------------------------------


    POTLOK:  cpu time    1.3666: real time    1.3667
    SETDIJ:  cpu time    2.0791: real time    2.0793
    TRIAL :  cpu time  515.0349: real time  515.1379
    CORREC:  cpu time    0.0014: real time    0.0017
    CHARGE:  cpu time    1.6631: real time    1.6633
    --------------------------------------------
      LOOP:  cpu time  520.1478: real time  520.2518

 eigenvalue-minimisations  :     0
 total energy-change (2. order) :-0.1690703E-01  (-0.1567603E-01)
 number of electron     242.9999995 magnetization       3.0000002
 augmentation part       14.5327873 magnetization       2.5034356

 DIPCOR: dipole corrections for dipol
 direction  3 min pos     1,
 dipolmoment           0.000000     -0.000000      0.001363 electrons x Angstroem
 Tr[quadrupol]     -6679.540231

 energy correction for charged system         0.000000 eV
 dipol+quadrupol energy correction            0.000000 eV
 added-field ion interaction          0.000000 eV  (added to PSCEN)


 Free energy of the ion-electron system (eV)
  ---------------------------------------------------
  alpha Z        PSCENC =        98.33027728
  Ewald energy   TEWEN  =     38731.66053943
  -Hartree energ DENC   =    -47123.37838464
  -exchange      EXHF   =       544.45110801
  -V(xc)+E(xc)   XCENC  =       613.14015287
  PAW double counting   =     26747.23717836   -26833.89922858
  entropy T*S    EENTRO =        -0.00000000
  eigenvalues    EBANDS =     -3155.08454792
  atomic energy  EATOM  =      9771.40124162
  ---------------------------------------------------
  free energy    TOTEN  =      -606.14166358 eV

  energy without entropy =     -606.14166358  energy(sigma->0) =     -606.14166358
  exchange ACFDT corr.  =        -0.00000000  see jH, gK, PRB 81, 115126


--------------------------------------------------------------------------------------------------------




--------------------------------------- Iteration      1(  17)  ---------------------------------------


    POTLOK:  cpu time    1.3676: real time    1.3678
    SETDIJ:  cpu time    2.0761: real time    2.0763
    TRIAL :  cpu time  514.5819: real time  514.6633
    CORREC:  cpu time    0.0013: real time    0.0017
    CHARGE:  cpu time    1.6605: real time    1.6608
    --------------------------------------------
      LOOP:  cpu time  519.6902: real time  519.7725

 eigenvalue-minimisations  :     0
 total energy-change (2. order) :-0.1497768E-01  (-0.1384982E-01)
 number of electron     242.9999995 magnetization       3.0000002
 augmentation part       14.5334555 magnetization       2.5218283

 DIPCOR: dipole corrections for dipol
 direction  3 min pos     1,
 dipolmoment           0.000000     -0.000000      0.001377 electrons x Angstroem
 Tr[quadrupol]     -6679.539929

 energy correction for charged system         0.000000 eV
 dipol+quadrupol energy correction            0.000000 eV
 added-field ion interaction          0.000000 eV  (added to PSCEN)


 Free energy of the ion-electron system (eV)
  ---------------------------------------------------
  alpha Z        PSCENC =        98.33027728
  Ewald energy   TEWEN  =     38731.66053943
  -Hartree energ DENC   =    -47123.31723584
  -exchange      EXHF   =       544.49662917
  -V(xc)+E(xc)   XCENC  =       613.15458676
  PAW double counting   =     26749.85643386   -26836.55632909
  entropy T*S    EENTRO =        -0.00000000
  eigenvalues    EBANDS =     -3155.18278443
  atomic energy  EATOM  =      9771.40124162
  ---------------------------------------------------
  free energy    TOTEN  =      -606.15664126 eV

  energy without entropy =     -606.15664126  energy(sigma->0) =     -606.15664126
  exchange ACFDT corr.  =        -0.00000000  see jH, gK, PRB 81, 115126


--------------------------------------------------------------------------------------------------------




--------------------------------------- Iteration      1(  18)  ---------------------------------------


    POTLOK:  cpu time    1.3626: real time    1.3627
    SETDIJ:  cpu time    2.0764: real time    2.0766
    TRIAL :  cpu time  515.2682: real time  515.3573
    CORREC:  cpu time    0.0012: real time    0.0015
    CHARGE:  cpu time    1.6606: real time    1.6608
    --------------------------------------------
      LOOP:  cpu time  520.3713: real time  520.4613

 eigenvalue-minimisations  :     0
 total energy-change (2. order) :-0.1323431E-01  (-0.1220687E-01)
 number of electron     242.9999995 magnetization       3.0000002
 augmentation part       14.5340039 magnetization       2.5390501

 DIPCOR: dipole corrections for dipol
 direction  3 min pos     1,
 dipolmoment           0.000000     -0.000000      0.001388 electrons x Angstroem
 Tr[quadrupol]     -6679.539405

 energy correction for charged system         0.000000 eV
 dipol+quadrupol energy correction            0.000000 eV
 added-field ion interaction          0.000000 eV  (added to PSCEN)


 Free energy of the ion-electron system (eV)
  ---------------------------------------------------
  alpha Z        PSCENC =        98.33027728
  Ewald energy   TEWEN  =     38731.66053943
  -Hartree energ DENC   =    -47123.25843404
  -exchange      EXHF   =       544.53849099
  -V(xc)+E(xc)   XCENC  =       613.16792608
  PAW double counting   =     26752.29711500   -26839.03290007
  entropy T*S    EENTRO =        -0.00000000
[...]
  augment   163.08860   161.16190   173.62357     4.48160    -0.02636     0.03908
  Kinetic  3521.06814  3549.81595  4007.93360     0.53968     0.01511    -0.02387
  Fock     -324.64407  -324.25188  -305.23289    -1.38696     0.00910    -0.01715
  -------------------------------------------------------------------------------------
  Total     -44.85000   -41.03114    -0.28852    -0.29086     0.00030    -0.00048
  in kB     -22.61882   -20.69289    -0.14551    -0.14668     0.00015    -0.00024
  external pressure =      -14.49 kB  Pullay stress =        0.00 kB


 VOLUME and BASIS-vectors are now :
 -----------------------------------------------------------------------------
  energy-cutoff  :      500.00
  volume of cell :     3176.90
      direct lattice vectors                 reciprocal lattice vectors
    12.762070748 -0.004507872 -0.000137787     0.078357203  0.000036886 -0.000016260
    -0.005877511 12.485597481  0.000209277     0.000028291  0.080092295  0.000023322
     0.004139896 -0.005807194 19.937588806     0.000000541 -0.000000840  0.050156516

  length of vectors
    12.762071544 12.485598867 19.937590081     0.078357213  0.080092304  0.050156516


 FORCES acting on ions:
    Electron-Ion                     Ewald-Force                    Non-Local-Force
 -----------------------------------------------------------------------------------------------
   0.814E+00 0.105E+01 -.210E+00   -.942E+00 -.107E+01 0.211E+00   -.493E-01 0.905E-03 -.857E-03
   -.310E+01 0.175E+00 -.169E+00   0.323E+01 -.781E-01 0.169E+00   -.155E+00 -.272E-01 -.195E-03
   0.681E+01 0.153E+01 -.920E-01   -.664E+01 -.156E+01 0.916E-01   0.191E-01 0.285E-01 0.890E-03
   0.101E+02 0.314E+01 -.220E+00   -.101E+02 -.293E+01 0.219E+00   0.830E-01 -.105E+00 0.898E-03
   0.629E+01 -.400E+01 -.145E+00   -.590E+01 0.437E+01 0.145E+00   -.400E+00 -.455E+00 -.112E-02
   -.211E+01 -.219E+01 -.312E+00   0.212E+01 0.215E+01 0.312E+00   -.950E-01 0.200E-01 -.344E-03
   0.180E+01 -.126E+01 -.239E+00   -.155E+01 0.122E+01 0.238E+00   -.239E+00 -.449E-02 -.367E-03
   0.130E+02 -.244E+01 0.194E+00   -.113E+02 0.230E+01 -.197E+00   -.129E+01 0.369E-01 0.214E-02
   0.613E+01 0.263E+00 0.898E-01   -.567E+01 -.828E+00 -.920E-01   -.452E+00 0.660E+00 0.135E-02
   -.106E+01 -.273E+01 -.311E+00   0.107E+01 0.272E+01 0.309E+00   -.118E-01 -.317E-01 0.461E-03
   0.394E+01 -.257E+01 -.267E+00   -.379E+01 0.257E+01 0.267E+00   -.100E+00 0.436E-01 -.145E-02
   0.161E+02 -.920E+01 0.274E+00   -.164E+02 0.923E+01 -.270E+00   0.341E+00 -.796E-01 -.397E-02
   -.744E+00 -.462E+01 -.971E-01   0.108E+01 0.529E+01 0.964E-01   -.595E+00 -.636E+00 -.476E-03
   -.337E+01 0.259E+01 -.265E+00   0.324E+01 -.244E+01 0.265E+00   -.693E-01 -.471E-01 -.861E-03
   0.277E+01 -.618E+00 -.299E+00   -.240E+01 0.702E+00 0.299E+00   -.121E+00 -.125E+00 -.133E-02
   0.766E+01 0.659E+01 -.216E+00   -.597E+01 -.639E+01 0.213E+00   -.144E+01 -.100E+00 0.995E-03
   0.191E+01 0.720E+01 -.248E+00   -.161E+01 -.765E+01 0.249E+00   -.279E+00 0.483E+00 -.145E-02
   -.357E+01 0.200E+01 -.358E-01   0.365E+01 -.217E+01 0.365E-01   -.128E+00 0.947E-01 0.401E-03
   0.252E+01 0.300E+01 -.134E+00   -.229E+01 -.303E+01 0.134E+00   -.237E+00 0.340E-01 0.102E-02
   0.994E+01 0.230E+01 -.241E+00   -.992E+01 -.261E+01 0.239E+00   0.587E-01 0.237E+00 0.191E-02
   0.151E+00 0.600E+01 -.412E+00   -.632E+00 -.639E+01 0.411E+00   0.340E+00 0.449E+00 0.286E-03
   0.947E+01 0.572E+01 -.291E+00   -.948E+01 -.555E+01 0.293E+00   -.598E-01 -.248E+00 -.247E-02
   0.658E+01 0.476E+01 -.412E+00   -.678E+01 -.481E+01 0.413E+00   0.278E+00 0.130E+00 -.821E-03
   -.439E+01 0.180E+02 -.336E+00   0.427E+01 -.187E+02 0.338E+00   0.891E-01 0.572E+00 -.353E-02
   0.145E+02 0.417E+02 -.153E-01   -.171E+02 -.445E+02 0.209E-01   0.259E+01 0.301E+01 -.707E-02
   0.198E+02 0.161E+02 0.612E-01   -.212E+02 -.148E+02 -.622E-01   0.124E+01 -.111E+01 0.379E-03
   0.730E+00 -.406E+01 -.437E+00   -.531E+00 0.273E+01 0.439E+00   -.104E+00 0.120E+01 -.345E-02
   0.554E+01 -.366E+00 -.373E+00   -.549E+01 -.903E-01 0.375E+00   -.919E-01 0.343E+00 -.122E-02
   0.700E+01 -.877E+00 -.374E+00   -.743E+01 -.562E+00 0.376E+00   0.306E+00 0.127E+01 -.302E-02
   -.440E+01 -.845E+00 -.396E+00   0.429E+01 0.285E+00 0.398E+00   0.142E+00 0.413E+00 -.142E-02
   -.102E+02 0.244E+01 -.929E-01   0.102E+02 -.251E+01 0.926E-01   -.189E+00 0.691E-01 0.786E-03
   -.133E+02 0.105E+02 -.238E+00   0.135E+02 -.108E+02 0.237E+00   -.291E+00 0.321E+00 0.303E-03
   -.353E+01 0.390E+01 -.214E+00   0.387E+01 -.433E+01 0.215E+00   -.186E+00 0.451E+00 -.839E-03
   -.155E+01 0.394E+00 -.177E+00   0.171E+01 -.325E+00 0.178E+00   -.129E+00 -.440E-02 -.319E-03
   -.845E+01 0.759E+00 -.260E+00   0.887E+01 -.669E+00 0.260E+00   -.371E+00 -.942E-01 -.472E-03
   -.484E+02 -.243E+01 0.831E-01   0.519E+02 0.277E+01 -.777E-01   -.354E+01 -.355E+00 -.531E-02
   -.171E+02 0.181E+00 -.199E+00   0.176E+02 -.333E+00 0.200E+00   -.510E+00 0.155E+00 -.216E-02
   -.444E+01 -.373E+01 -.330E+00   0.469E+01 0.374E+01 0.330E+00   -.147E+00 -.409E-01 -.812E-03
   -.106E+02 -.299E+01 -.274E+00   0.107E+02 0.310E+01 0.274E+00   -.108E+00 -.450E-01 -.129E-02
   -.637E+02 -.893E+01 0.214E+00   0.676E+02 0.932E+01 -.198E+00   -.373E+01 -.238E+00 -.157E-01
   -.214E+02 0.994E+00 0.340E-01   0.217E+02 -.749E+00 -.329E-01   -.214E+00 -.154E+00 -.149E-02
   -.471E+01 -.119E+01 -.322E+00   0.476E+01 0.123E+01 0.320E+00   -.296E-01 -.866E-01 0.450E-03
   -.101E+02 -.264E+01 -.330E+00   0.981E+01 0.259E+01 0.330E+00   0.657E-01 -.139E-01 -.166E-02
   -.107E+02 -.181E+01 -.285E+00   0.901E+01 0.188E+01 0.281E+00   0.126E+01 -.110E-01 0.238E-02
   -.110E+02 -.900E+01 -.192E+00   0.107E+02 0.976E+01 0.191E+00   0.454E+00 -.964E+00 -.116E-02
   -.934E+00 0.242E+01 -.274E+00   0.118E+01 -.232E+01 0.275E+00   -.285E-01 -.478E-01 -.100E-02
   -.576E+01 0.183E+01 -.129E+00   0.561E+01 -.188E+01 0.129E+00   0.144E+00 0.675E-01 0.996E-03
   -.859E+01 0.257E+01 -.250E+00   0.853E+01 -.303E+01 0.248E+00   -.577E-02 0.340E+00 0.198E-02
   -.450E+01 0.497E+01 -.259E+00   0.419E+01 -.543E+01 0.260E+00   0.257E+00 0.521E+00 -.106E-02
   0.289E+00 0.247E+01 -.286E-01   -.155E+00 -.269E+01 0.292E-01   -.835E-01 0.130E+00 0.654E-03
   0.298E+02 -.134E+02 0.571E+00   -.268E+02 0.190E+02 -.585E+00   -.339E+01 -.585E+01 0.176E-01
   0.655E+02 -.195E+02 0.114E+01   -.608E+02 0.196E+02 -.116E+01   -.507E+01 0.554E-01 0.300E-01
   0.390E+01 0.300E+02 -.217E+00   -.683E+00 -.352E+02 0.213E+00   -.356E+01 0.549E+01 0.384E-02
   -.432E+00 0.166E+02 -.377E+00   -.259E+01 -.217E+02 0.374E+00   0.348E+01 0.520E+01 0.181E-02
   -.162E+02 -.131E+02 0.571E+00   0.598E+01 0.297E+02 -.605E+00   0.986E+01 -.160E+02 0.393E-01
   -.619E+02 -.247E+02 0.206E+01   0.486E+02 0.241E+02 -.214E+01   0.125E+02 0.574E+00 0.810E-01
   0.495E+02 0.776E+02 0.334E+01   -.512E+02 -.826E+02 -.330E+01   0.278E+01 0.271E+01 -.414E-01
   0.483E+02 -.133E+03 0.233E+01   -.483E+02 0.140E+03 -.227E+01   0.192E+00 -.582E+01 -.624E-01
 -----------------------------------------------------------------------------------------------
   -.957E+01 0.781E+01 -.303E-01   -.398E-12 -.341E-12 -.444E-15   0.902E+01 -.755E+01 0.194E-01
 
 
 POSITION                                       TOTAL-FORCE (eV/Angst)
 -----------------------------------------------------------------------------------
      2.82009      0.00256      9.96913        -0.187616     -0.023099      0.000078
      0.70398      1.25442      9.96911        -0.032340      0.068107      0.000221
      1.40345     -0.00025      9.96896         0.205198     -0.007413      0.000528
      3.53422      1.24781      9.96877         0.092471      0.109699     -0.000760
      2.85027      2.50223      9.96825        -0.023634     -0.113570     -0.000872
      0.69584      3.74252      9.96920        -0.090222     -0.019823     -0.000760
      1.41634      2.50072      9.96901         0.000385     -0.047536     -0.000733
      3.59426      3.74162      9.96643         0.284302     -0.103176     -0.000416
      2.84394      4.97967      9.96690        -0.018962      0.132256     -0.000743
      0.69434      6.23318      9.96918        -0.005203     -0.043549     -0.001068
      1.41772      4.98693      9.96870         0.051609      0.049055     -0.001073
      3.56414      6.22502      9.96571         0.025991     -0.051553      0.000541
      2.85413      7.48317      9.96785        -0.294468     -0.001933     -0.001179
      0.69892      8.72992      9.96941        -0.203826      0.099885     -0.000287
      1.42328      7.48121      9.96908         0.247412     -0.047586     -0.001411
      3.58987      8.73820      9.96845         0.179254      0.089992     -0.001979
      2.84101      9.97973      9.96924         0.004956      0.054367     -0.000408
      0.70130     11.22680      9.96905        -0.058113     -0.073101      0.001233
      1.41199      9.97817      9.96919        -0.011805      0.009031      0.000715
      3.52008     11.24012      9.96945         0.083488     -0.064417      0.000289
      7.07884      0.00169      9.96947        -0.123412      0.077127     -0.000617
      4.95790      1.24442      9.96862        -0.071332     -0.092641     -0.001533
      5.66118      0.00595      9.96946         0.089774      0.080702     -0.000796
      7.80106      1.22664      9.96870        -0.026210     -0.038750     -0.001687
      7.10430      2.44768      9.96683         0.211982      0.331908     -0.001761
      5.67151      2.47351      9.96670        -0.147374      0.186250     -0.000642
      7.08171     10.04485      9.96930         0.091765     -0.084441     -0.001273
      4.93785     11.25976      9.96967        -0.051288     -0.103221      0.000154
      5.64566     10.03468      9.96916        -0.111282     -0.104061     -0.000850
      7.79223     11.26197      9.96972         0.040753     -0.134149      0.000331
     11.34225     12.47807      9.96908        -0.180954      0.011797      0.000522
      9.22046      1.22945      9.96880        -0.049231      0.034838     -0.000603
      9.92676     12.47537      9.96931         0.152524      0.048733      0.000189
     12.04141      1.24907      9.96902         0.036201      0.062868      0.000087
     11.32361      2.49317      9.96898         0.028020     -0.007631     -0.000901
      9.12849      3.71040      9.96658        -0.263078     -0.039638     -0.000182
      9.89314      2.48356      9.96833        -0.006399      0.004639     -0.001363
     12.02950      3.73829      9.96912         0.104162     -0.033684     -0.000842
     11.29260      4.97654      9.96860         0.009922      0.059950     -0.001251
      9.15115      6.22817      9.96530        -0.092423      0.140080     -0.000448
      9.85740      4.96531      9.96683         0.045981      0.088182     -0.000447
     12.01984      6.22673      9.96908         0.022947     -0.055092     -0.000910
     11.30252      7.47758      9.96903        -0.182398     -0.067562     -0.001384
      9.14620      8.73971      9.96854        -0.377002      0.062779     -0.001776
      9.87549      7.48968      9.96787         0.201240     -0.260098     -0.001939
     12.03275      8.72565      9.96931         0.219026      0.054713     -0.000151
     11.32440      9.97579      9.96909        -0.005432      0.025608      0.000929
      9.21325     11.23544      9.96944        -0.072087     -0.105564      0.000510
      9.89552      9.98006      9.96922        -0.031486      0.096621      0.000142
     12.04017     11.22249      9.96892         0.053134     -0.083644      0.001231
      5.02504      3.74415      9.96461        -0.532427     -0.513004      0.004699
      4.96341      6.18988      9.96233        -0.628479      0.201500      0.007459
      5.01081      8.76538      9.96786        -0.534779      0.555872     -0.000091
      7.72538      8.79107      9.96814         0.637186      0.417957     -0.001374
      7.74699      3.66383      9.96497         0.468050     -0.725616      0.008170
      7.81868      6.24279      9.96123         0.300167      0.079523      0.006443
      6.40357      5.09461      9.96094         0.415439     -0.741044     -0.001058
      6.41106      7.33748      9.96228         0.109926      0.552554      0.001097
 -----------------------------------------------------------------------------------
    total drift:                                0.005369      0.001898     -0.000846


--------------------------------------------------------------------------------------------------------



  FREE ENERGIE OF THE ION-ELECTRON SYSTEM (eV)
  ---------------------------------------------------
  free  energy   TOTEN  =      -606.28119607 eV

  energy  without entropy=     -606.28119607  energy(sigma->0) =     -606.28119607
 


--------------------------------------------------------------------------------------------------------


    POTLOK:  cpu time    3.4289: real time    3.4292


--------------------------------------------------------------------------------------------------------


 stress matrix after NEB project (eV)
    -44.85000     -0.29087     -0.00048
     -0.29086    -41.03114      0.00019
     -0.00055      0.00030     -0.28852
  FORCES: max atom, RMS     0.863514    0.306925
  FORCE total and by dimension    2.337471    0.741044
  Stress total and by dimension   60.789217   44.849998
 writing wavefunctions
     LOOP+:  cpu time66296.0942: real time66318.6982
    4ORBIT:  cpu time    0.0000: real time    0.0000
 


 total charge     
 
# of ion       s       p       d       tot
------------------------------------------
    1        0.867   1.764   0.000   2.631
    2        0.865   1.758   0.000   2.623
    3        0.864   1.768   0.000   2.632
    4        0.865   1.770   0.000   2.635
    5        0.865   1.748   0.000   2.612
    6        0.864   1.752   0.000   2.616
    7        0.863   1.757   0.000   2.619
    8        0.859   1.744   0.000   2.603
    9        0.869   1.733   0.000   2.601
   10        0.862   1.735   0.000   2.597
   11        0.862   1.759   0.000   2.621
   12        0.864   1.775   0.000   2.639
   13        0.865   1.722   0.000   2.587
   14        0.863   1.749   0.000   2.611
   15        0.860   1.749   0.000   2.609
   16        0.860   1.737   0.000   2.597
   17        0.863   1.749   0.000   2.612
   18        0.865   1.757   0.000   2.621
   19        0.863   1.758   0.000   2.621
   20        0.867   1.771   0.000   2.638
   21        0.871   1.782   0.000   2.653
   22        0.871   1.774   0.000   2.645
   23        0.869   1.784   0.000   2.653
   24        0.873   1.805   0.000   2.678
   25        0.874   1.745   0.000   2.619
   26        0.872   1.778   0.000   2.649
   27        0.883   1.774   0.000   2.657
   28        0.873   1.786   0.000   2.659
   29        0.880   1.767   0.000   2.647
   30        0.873   1.794   0.000   2.668
   31        0.867   1.764   0.000   2.631
   32        0.871   1.767   0.000   2.639
   33        0.867   1.780   0.000   2.647
   34        0.864   1.763   0.000   2.627
   35        0.864   1.758   0.000   2.622
   36        0.854   1.702   0.000   2.556
   37        0.863   1.768   0.000   2.631
   38        0.862   1.762   0.000   2.624
   39        0.861   1.735   0.000   2.595
   40        0.863   1.733   0.000   2.596
   41        0.855   1.755   0.000   2.610
   42        0.857   1.749   0.000   2.606
   43        0.863   1.740   0.000   2.603
   44        0.861   1.737   0.000   2.598
   45        0.862   1.744   0.000   2.606
   46        0.861   1.755   0.000   2.616
   47        0.864   1.752   0.000   2.616
   48        0.868   1.769   0.000   2.637
   49        0.864   1.754   0.000   2.618
   50        0.864   1.763   0.000   2.626
   51        0.869   1.633   0.000   2.501
   52        0.915   1.515   0.000   2.430
   53        0.870   1.653   0.000   2.523
   54        0.872   1.672   0.000   2.544
   55        1.231   2.658   0.000   3.888
   56        1.258   2.584   0.000   3.842
   57        0.527   0.749   7.391   8.667
   58        0.552   0.847   6.196   7.595
--------------------------------------------------
tot         50.360 101.200  13.588 165.148
 


 magnetization (x)
 
# of ion       s       p       d       tot
------------------------------------------
    1       -0.001  -0.009   0.000  -0.009
    2       -0.001  -0.009   0.000  -0.009
    3        0.001   0.009   0.000   0.009
    4        0.001   0.009   0.000   0.009
    5       -0.001  -0.009   0.000  -0.010
    6       -0.001  -0.008   0.000  -0.008
    7        0.001   0.010   0.000   0.010
    8        0.001   0.014   0.000   0.015
    9       -0.004  -0.039   0.000  -0.043
   10       -0.002  -0.029   0.000  -0.031
   11        0.001   0.014   0.000   0.015
   12        0.003   0.029   0.000   0.032
   13       -0.003  -0.035   0.000  -0.038
   14       -0.001  -0.007   0.000  -0.007
   15        0.002   0.016   0.000   0.018
   16        0.002   0.021   0.000   0.023
   17       -0.001  -0.012   0.000  -0.013
   18       -0.001  -0.008   0.000  -0.008
   19        0.001   0.007   0.000   0.007
   20        0.001   0.015   0.000   0.016
   21       -0.001  -0.013   0.000  -0.013
   22       -0.001  -0.010   0.000  -0.011
   23        0.001   0.009   0.000   0.010
   24        0.000   0.002   0.000   0.002
   25       -0.000  -0.002   0.000  -0.003
   26       -0.000   0.003   0.000   0.003
   27       -0.001   0.000   0.000  -0.001
   28       -0.002  -0.016   0.000  -0.017
   29        0.001   0.024   0.000   0.025
   30       -0.001  -0.002   0.000  -0.003
   31       -0.000  -0.003   0.000  -0.003
   32        0.000   0.004   0.000   0.004
   33        0.000   0.003   0.000   0.003
   34        0.000   0.005   0.000   0.005
   35       -0.001  -0.006   0.000  -0.007
   36       -0.000  -0.002   0.000  -0.002
   37        0.000   0.002   0.000   0.002
   38        0.001   0.008   0.000   0.008
   39       -0.001  -0.013   0.000  -0.014
   40       -0.001  -0.023   0.000  -0.024
   41       -0.000   0.002   0.000   0.002
   42        0.001   0.010   0.000   0.011
   43       -0.001  -0.010   0.000  -0.010
   44       -0.000  -0.002   0.000  -0.003
   45        0.001   0.012   0.000   0.013
   46        0.001   0.010   0.000   0.010
   47       -0.001  -0.006   0.000  -0.007
   48        0.000   0.004   0.000   0.005
   49       -0.001  -0.001   0.000  -0.001
   50        0.000   0.005   0.000   0.006
   51       -0.007  -0.038   0.000  -0.045
   52       -0.017  -0.181   0.000  -0.198
   53       -0.013  -0.064   0.000  -0.076
   54       -0.015  -0.051   0.000  -0.066
   55       -0.003  -0.016   0.000  -0.019
   56       -0.006  -0.085   0.000  -0.092
   57        0.002  -0.010   0.960   0.952
   58        0.056   0.008   2.582   2.647
--------------------------------------------------
tot         -0.011  -0.461   3.542   3.070
 

 total amount of memory used by VASP MPI-rank0   180603. kBytes
=======================================================================

   base      :      30000. kBytes
   nonl-proj :       5360. kBytes
   fftplans  :      14250. kBytes
   grid      :      36827. kBytes
   one-center:         62. kBytes
   HF        :         23. kBytes
   nonlr-proj:      16618. kBytes
   wavefun   :      77463. kBytes
 
  
  
 General timing and accounting informations for this job:
 ========================================================
  
                  Total CPU time used (sec):    66390.297
                            User time (sec):    66302.318
                          System time (sec):       87.981
                         Elapsed time (sec):    66416.900
  
                   Maximum memory used (kb):      435484.
                   Average memory used (kb):           0.
  
                          Minor page faults:       461895
                          Major page faults:            1
                 Voluntary context switches:         1947
