 vasp.5.4.4.18Apr17-6-g9f103f2a35 (build Feb 25 2019 10:51:38) complex          
  
 executed on             LinuxIFC date 2022.01.27  14:49:56
 running on   32 total cores
 distrk:  each k-point on   32 cores,    1 groups
 distr:  one band on NCORES_PER_BAND=  32 cores,    1 groups


--------------------------------------------------------------------------------------------------------


 INCAR:
 POTCAR:    PAW_PBE C 08Apr2002                   
 POTCAR:    PAW_PBE N 08Apr2002                   
 POTCAR:    PAW_PBE Fe 06Sep2000                  
 POTCAR:    PAW_PBE Zn 06Sep2000                  

 ----------------------------------------------------------------------------- 
|                                                                             |
|           W    W    AA    RRRRR   N    N  II  N    N   GGGG   !!!           |
|           W    W   A  A   R    R  NN   N  II  NN   N  G    G  !!!           |
|           W    W  A    A  R    R  N N  N  II  N N  N  G       !!!           |
|           W WW W  AAAAAA  RRRRR   N  N N  II  N  N N  G  GGG   !            |
|           WW  WW  A    A  R   R   N   NN  II  N   NN  G    G                |
|           W    W  A    A  R    R  N    N  II  N    N   GGGG   !!!           |
|                                                                             |
|      For optimal performance we recommend to set                            |
|        NCORE= 4 - approx SQRT( number of cores)                             |
|      NCORE specifies how many cores store one orbital (NPAR=cpu/NCORE).     |
|      This setting can  greatly improve the performance of VASP for DFT.     |
|      The default,   NCORE=1            might be grossly inefficient         |
|      on modern multi-core architectures or massively parallel machines.     |
|      Do your own testing !!!!                                               |
|      Unfortunately you need to use the default for GW and RPA calculations. |
|      (for HF NCORE is supported but not extensively tested yet)             |
|                                                                             |
 ----------------------------------------------------------------------------- 

 POTCAR:    PAW_PBE C 08Apr2002                   
   VRHFIN =C: s2p2                                                              
   LEXCH  = PE                                                                  
   EATOM  =   147.1560 eV,   10.8157 Ry                                         
                                                                                
   TITEL  = PAW_PBE C 08Apr2002                                                 
   LULTRA =        F    use ultrasoft PP ?                                      
   IUNSCR =        1    unscreen: 0-lin 1-nonlin 2-no                           
   RPACOR =    1.200    partial core radius                                     
   POMASS =   12.011; ZVAL   =    4.000    mass and valenz                      
   RCORE  =    1.500    outmost cutoff radius                                   
   RWIGS  =    1.630; RWIGS  =    0.863    wigner-seitz radius (au A)           
   ENMAX  =  400.000; ENMIN  =  300.000 eV                                      
   ICORE  =        2    local potential                                         
   LCOR   =        T    correct aug charges                                     
   LPAW   =        T    paw PP                                                  
   EAUG   =  644.873                                                            
   DEXC   =    0.000                                                            
   RMAX   =    1.529    core radius for proj-oper                               
   RAUG   =    1.300    factor for augmentation sphere                          
   RDEP   =    1.501    radius for radial grids                                 
   RDEPT  =    1.300    core radius for aug-charge                              
                                                                                
   Atomic configuration                                                         
    4 entries                                                                   
     n  l   j            E        occ.                                          
     1  0  0.50      -273.3789   2.0000                                         
     2  0  0.50       -13.7508   2.0000                                         
     2  1  0.50        -5.2854   2.0000                                         
     3  2  1.50        -5.4423   0.0000                                         
   Description                                                                  
     l       E           TYP  RCUT    TYP  RCUT                                 
     0    -13.7508458     23  1.200                                             
     0     -8.2022199     23  1.200                                             
     1     -5.2854383     23  1.500                                             
     1     34.0145650     23  1.500                                             
     2     -5.4423304      7  1.500                                             
  local pseudopotential read in
  partial core-charges read in
  partial kinetic energy density read in
  atomic valenz-charges read in
  non local Contribution for L=           0  read in
    real space projection operators read in
  non local Contribution for L=           0  read in
    real space projection operators read in
  non local Contribution for L=           1  read in
    real space projection operators read in
  non local Contribution for L=           1  read in
    real space projection operators read in
    PAW grid and wavefunctions read in
 
   number of l-projection  operators is LMAX  =           4
   number of lm-projection operators is LMMAX =           8
 
 POTCAR:    PAW_PBE N 08Apr2002                   
   VRHFIN =N: s2p3                                                              
   LEXCH  = PE                                                                  
   EATOM  =   264.5486 eV,   19.4438 Ry                                         
                                                                                
   TITEL  = PAW_PBE N 08Apr2002                                                 
   LULTRA =        F    use ultrasoft PP ?                                      
   IUNSCR =        1    unscreen: 0-lin 1-nonlin 2-no                           
   RPACOR =    1.200    partial core radius                                     
   POMASS =   14.001; ZVAL   =    5.000    mass and valenz                      
   RCORE  =    1.500    outmost cutoff radius                                   
   RWIGS  =    1.400; RWIGS  =    0.741    wigner-seitz radius (au A)           
   ENMAX  =  400.000; ENMIN  =  300.000 eV                                      
   ICORE  =        2    local potential                                         
   LCOR   =        T    correct aug charges                                     
   LPAW   =        T    paw PP                                                  
   EAUG   =  627.112                                                            
   DEXC   =    0.000                                                            
   RMAX   =    1.529    core radius for proj-oper                               
   RAUG   =    1.300    factor for augmentation sphere                          
   RDEP   =    1.514    radius for radial grids                                 
   RDEPT  =    1.338    core radius for aug-charge                              
                                                                                
   Atomic configuration                                                         
    4 entries                                                                   
     n  l   j            E        occ.                                          
     1  0  0.50      -384.7179   2.0000                                         
     2  0  0.50       -18.5828   2.0000                                         
     2  1  0.50        -7.0898   3.0000                                         
     3  2  1.50        -6.8029   0.0000                                         
   Description                                                                  
     l       E           TYP  RCUT    TYP  RCUT                                 
     0    -18.5828119     23  1.200                                             
     0    -13.5018863     23  1.200                                             
     1     -7.0897853     23  1.500                                             
     1      9.5240782     23  1.500                                             
     2     -6.8029130      7  1.500                                             
  local pseudopotential read in
  partial core-charges read in
  partial kinetic energy density read in
  atomic valenz-charges read in
  non local Contribution for L=           0  read in
    real space projection operators read in
  non local Contribution for L=           0  read in
    real space projection operators read in
  non local Contribution for L=           1  read in
    real space projection operators read in
  non local Contribution for L=           1  read in
    real space projection operators read in
    PAW grid and wavefunctions read in
 
   number of l-projection  operators is LMAX  =           4
   number of lm-projection operators is LMMAX =           8
 
 POTCAR:    PAW_PBE Fe 06Sep2000                  
   VRHFIN =Fe:  d7 s1                                                           
   LEXCH  = PE                                                                  
   EATOM  =   594.3153 eV,   43.6809 Ry                                         
                                                                                
   TITEL  = PAW_PBE Fe 06Sep2000                                                
   LULTRA =        F    use ultrasoft PP ?                                      
   IUNSCR =        1    unscreen: 0-lin 1-nonlin 2-no                           
   RPACOR =    2.000    partial core radius                                     
   POMASS =   55.847; ZVAL   =    8.000    mass and valenz                      
   RCORE  =    2.300    outmost cutoff radius                                   
   RWIGS  =    2.460; RWIGS  =    1.302    wigner-seitz radius (au A)           
   ENMAX  =  267.882; ENMIN  =  200.911 eV                                      
   RCLOC  =    1.701    cutoff for local pot                                    
   LCOR   =        T    correct aug charges                                     
   LPAW   =        T    paw PP                                                  
   EAUG   =  511.368                                                            
   DEXC   =    0.000                                                            
   RMAX   =    2.356    core radius for proj-oper                               
   RAUG   =    1.300    factor for augmentation sphere                          
   RDEP   =    2.442    radius for radial grids                                 
   RDEPT  =    1.890    core radius for aug-charge                              
                                                                                
   Atomic configuration                                                         
    9 entries                                                                   
     n  l   j            E        occ.                                          
     1  0  0.50     -6993.8440   2.0000                                         
     2  0  0.50      -814.6047   2.0000                                         
     2  1  1.50      -693.3689   6.0000                                         
     3  0  0.50       -89.4732   2.0000                                         
     3  1  1.50       -55.6373   6.0000                                         
     3  2  2.50        -3.8151   7.0000                                         
     4  0  0.50        -4.2551   1.0000                                         
     4  1  1.50        -3.4015   0.0000                                         
     4  3  2.50        -1.3606   0.0000                                         
   Description                                                                  
     l       E           TYP  RCUT    TYP  RCUT                                 
     2     -3.8151135     23  2.300                                             
     2     -5.1756961     23  2.300                                             
     0     -4.2550963     23  2.300                                             
     0      7.2035603     23  2.300                                             
     1     -2.7211652     23  2.300                                             
     1     18.4316424     23  2.300                                             
  local pseudopotential read in
  partial core-charges read in
  partial kinetic energy density read in
  atomic valenz-charges read in
  non local Contribution for L=           2  read in
    real space projection operators read in
  non local Contribution for L=           2  read in
    real space projection operators read in
  non local Contribution for L=           0  read in
    real space projection operators read in
  non local Contribution for L=           0  read in
    real space projection operators read in
  non local Contribution for L=           1  read in
    real space projection operators read in
  non local Contribution for L=           1  read in
    real space projection operators read in
    PAW grid and wavefunctions read in
 
   number of l-projection  operators is LMAX  =           6
   number of lm-projection operators is LMMAX =          18
 
 POTCAR:    PAW_PBE Zn 06Sep2000                  
   VRHFIN =Zn: d10 p2                                                           
   LEXCH  = PE                                                                  
   EATOM  =  1748.8345 eV,  128.5357 Ry                                         
                                                                                
   TITEL  = PAW_PBE Zn 06Sep2000                                                
   LULTRA =        F    use ultrasoft PP ?                                      
   IUNSCR =        1    unscreen: 0-lin 1-nonlin 2-no                           
   RPACOR =    2.000    partial core radius                                     
   POMASS =   65.390; ZVAL   =   12.000    mass and valenz                      
   RCORE  =    2.300    outmost cutoff radius                                   
   RWIGS  =    2.400; RWIGS  =    1.270    wigner-seitz radius (au A)           
   ENMAX  =  276.723; ENMIN  =  207.542 eV                                      
   RCLOC  =    1.828    cutoff for local pot                                    
   LCOR   =        T    correct aug charges                                     
   LPAW   =        T    paw PP                                                  
   EAUG   =  575.892                                                            
   DEXC   =    0.000                                                            
   RMAX   =    2.347    core radius for proj-oper                               
   RAUG   =    1.300    factor for augmentation sphere                          
   RDEP   =    2.324    radius for radial grids                                 
   RDEPT  =    1.788    core radius for aug-charge                              
                                                                                
   Atomic configuration                                                         
    9 entries                                                                   
     n  l   j            E        occ.                                          
     1  0  0.50     -9524.6913   2.0000                                         
     2  0  0.50     -1158.1882   2.0000                                         
     2  1  1.50     -1003.8506   6.0000                                         
     3  0  0.50      -129.2194   2.0000                                         
     3  1  1.50       -83.3890   6.0000                                         
     3  2  2.50       -10.1410  10.0000                                         
     4  0  0.50        -5.9785   2.0000                                         
     4  1  0.50        -4.0817   0.0000                                         
     4  3  2.50        -1.3606   0.0000                                         
   Description                                                                  
     l       E           TYP  RCUT    TYP  RCUT                                 
     2    -10.1410010     23  2.300                                             
     2    -11.5015836     23  2.300                                             
     0     -5.9785163     23  2.300                                             
     0      1.1858015     23  2.300                                             
     1     -2.7211652     23  2.300                                             
     1     13.2444212     23  2.300                                             
  local pseudopotential read in
  partial core-charges read in
  partial kinetic energy density read in
  atomic valenz-charges read in
  non local Contribution for L=           2  read in
    real space projection operators read in
  non local Contribution for L=           2  read in
    real space projection operators read in
  non local Contribution for L=           0  read in
    real space projection operators read in
  non local Contribution for L=           0  read in
    real space projection operators read in
  non local Contribution for L=           1  read in
    real space projection operators read in
  non local Contribution for L=           1  read in
    real space projection operators read in
    PAW grid and wavefunctions read in
 
   number of l-projection  operators is LMAX  =           6
   number of lm-projection operators is LMMAX =          18
 

 ----------------------------------------------------------------------------- 
|                                                                             |
|  ADVICE TO THIS USER RUNNING 'VASP/VAMP'   (HEAR YOUR MASTER'S VOICE ...):  |
|                                                                             |
|      You have a (more or less) 'large supercell' and for larger cells       |
|      it might be more efficient to use real space projection opertators     |
|      So try LREAL= Auto  in the INCAR   file.                               |
|      Mind:          For very  accurate calculation you might also keep the  |
|      reciprocal projection scheme          (i.e. LREAL=.FALSE.)             |
|                                                                             |
 ----------------------------------------------------------------------------- 

  PAW_PBE C 08Apr2002                   :
 energy of atom  1       EATOM= -147.1560
 kinetic energy error for atom=    0.0076 (will be added to EATOM!!)
  PAW_PBE N 08Apr2002                   :
 energy of atom  2       EATOM= -264.5486
 kinetic energy error for atom=    0.0138 (will be added to EATOM!!)
  PAW_PBE Fe 06Sep2000                  :
 energy of atom  3       EATOM= -594.3153
 kinetic energy error for atom=    0.0026 (will be added to EATOM!!)
  PAW_PBE Zn 06Sep2000                  :
 energy of atom  4       EATOM=-1748.8345
 kinetic energy error for atom=    0.0029 (will be added to EATOM!!)
 
 
 POSCAR:  C  N Fe Zn                             
  positions in cartesian coordinates
  No initial velocities read in
 exchange correlation table for  LEXCH =        8
   RHO(1)=    0.500       N(1)  =     2000
   RHO(2)=  100.500       N(2)  =     4000

 VTST: version 3.2, (02/03/18)

 CHAIN: initializing optimizer
 
 OPT: Using VASP Conjugate-Gradient optimizer
 CHAIN: Read ICHAIN            0
 
 POSCAR:  C  N Fe Zn                             
  positions in cartesian coordinates
  No initial velocities read in
 


--------------------------------------------------------------------------------------------------------


 ion  position               nearest neighbor table
   1  0.222  0.000  0.502-   3 1.43   4 1.43  19 1.43
   2  0.055  0.101  0.501-   3 1.43   7 1.44  33 1.44
   3  0.110  0.000  0.501-   1 1.43  17 1.43   2 1.43
   4  0.277  0.101  0.502-  21 1.43   1 1.43   5 1.43
   5  0.223  0.202  0.501-   4 1.43   7 1.44   8 1.44
   6  0.055  0.301  0.500-   7 1.43  11 1.43  37 1.44
   7  0.111  0.202  0.501-   6 1.43   2 1.44   5 1.44
   8  0.282  0.301  0.500-  50 1.38   5 1.44   9 1.47
   9  0.225  0.405  0.500-  49 1.36  11 1.45   8 1.47
  10  0.056  0.500  0.500-  11 1.43  14 1.43  40 1.45
  11  0.112  0.401  0.500-  10 1.43   6 1.43   9 1.45
  12  0.226  0.596  0.500-  49 1.36  14 1.45  15 1.48
  13  0.055  0.699  0.500-  18 1.43  14 1.43  44 1.44
  14  0.112  0.600  0.500-  10 1.43  13 1.43  12 1.45
  15  0.283  0.700  0.501-  52 1.38  16 1.44  12 1.48
  16  0.223  0.799  0.501-  19 1.43  18 1.44  15 1.44
  17  0.055  0.900  0.501-   3 1.43  48 1.44  18 1.44
  18  0.111  0.799  0.501-  13 1.43  17 1.44  16 1.44
  19  0.277  0.900  0.502-  27 1.43   1 1.43  16 1.43
  20  0.555  0.001  0.504-  22 1.42  23 1.42  29 1.43
  21  0.388  0.100  0.502-  22 1.42  25 1.43   4 1.43
  22  0.444  0.001  0.504-  20 1.42  21 1.42  27 1.43
  23  0.610  0.100  0.502-  20 1.42  24 1.43  31 1.43
  24  0.556  0.201  0.501-  51 1.38  23 1.43  25 1.46
  25  0.442  0.201  0.501-  50 1.38  21 1.43  24 1.46
  26  0.556  0.800  0.503-  53 1.37  29 1.42  28 1.46
  27  0.388  0.901  0.503-  28 1.42  22 1.43  19 1.43
  28  0.442  0.800  0.503-  52 1.37  27 1.42  26 1.46
  29  0.610  0.901  0.503-  26 1.42  20 1.43  46 1.43
  30  0.888  0.000  0.501-  32 1.43  33 1.43  48 1.43
  31  0.721  0.101  0.502-  23 1.43  32 1.43  36 1.43
  32  0.777  0.001  0.502-  30 1.43  31 1.43  46 1.43
  33  0.943  0.101  0.501-  30 1.43   2 1.44  34 1.44
  34  0.887  0.202  0.501-  37 1.43  33 1.44  36 1.44
  35  0.716  0.301  0.500-  51 1.38  36 1.44  39 1.47
  36  0.775  0.202  0.501-  31 1.43  34 1.44  35 1.44
  37  0.943  0.301  0.500-  34 1.43  38 1.43   6 1.44
  38  0.886  0.401  0.500-  40 1.43  37 1.43  39 1.45
  39  0.773  0.405  0.500-  54 1.36  38 1.45  35 1.47
  40  0.943  0.500  0.500-  38 1.43  41 1.43  10 1.45
  41  0.886  0.600  0.500-  40 1.43  44 1.43  43 1.45
  42  0.716  0.700  0.501-  53 1.38  47 1.44  43 1.48
  43  0.773  0.596  0.500-  54 1.36  41 1.45  42 1.48
  44  0.943  0.699  0.500-  45 1.43  41 1.43  13 1.44
  45  0.887  0.799  0.501-  44 1.43  48 1.44  47 1.44
  46  0.721  0.900  0.502-  29 1.43  32 1.43  47 1.43
  47  0.775  0.799  0.501-  46 1.43  45 1.44  42 1.44
  48  0.943  0.900  0.501-  30 1.43  45 1.44  17 1.44
  49  0.278  0.500  0.501-   9 1.36  12 1.36
  50  0.390  0.298  0.498-  25 1.38   8 1.38  55 2.01
  51  0.608  0.298  0.498-  24 1.38  35 1.38  55 2.02
  52  0.390  0.704  0.502-  28 1.37  15 1.38  56 2.06
  53  0.609  0.704  0.502-  26 1.37  42 1.38  56 2.06
  54  0.720  0.500  0.501-  39 1.36  43 1.36
  55  0.499  0.401  0.463-  50 2.01  51 2.02  56 2.34
  56  0.500  0.588  0.479-  53 2.06  52 2.06  55 2.34
 
  LATTYP: Found a simple orthorhombic cell.
 ALAT       =    12.4000000000
 B/A-ratio  =     1.0330645161
 C/A-ratio  =     1.6129032258
  
  Lattice vectors:
  
 A1 = (   0.0000000000, -12.4000000000,   0.0000000000)
 A2 = ( -12.8100000000,   0.0000000000,   0.0000000000)
 A3 = (   0.0000000000,   0.0000000000, -20.0000000000)


Analysis of symmetry for initial positions (statically):
=====================================================================
 Subroutine PRICEL returns:
 Original cell was already a primitive cell.
 

 Routine SETGRP: Setting up the symmetry group for a 
 simple orthorhombic supercell.


 Subroutine GETGRP returns: Found  1 space group operations
 (whereof  1 operations were pure point group operations)
 out of a pool of  8 trial point group operations.


The static configuration has the point symmetry C_1 .


Analysis of symmetry for dynamics (positions and initial velocities):
=====================================================================
 Subroutine PRICEL returns:
 Original cell was already a primitive cell.
 

 Routine SETGRP: Setting up the symmetry group for a 
 simple orthorhombic supercell.


 Subroutine GETGRP returns: Found  1 space group operations
 (whereof  1 operations were pure point group operations)
 out of a pool of  8 trial point group operations.


The dynamic configuration has the point symmetry C_1 .


Analysis of structural, dynamic, and magnetic symmetry:
=====================================================================
 Subroutine PRICEL returns:
 Original cell was already a primitive cell.
 

 Routine SETGRP: Setting up the symmetry group for a 
 simple orthorhombic supercell.


 Subroutine GETGRP returns: Found  1 space group operations
 (whereof  1 operations were pure point group operations)
 out of a pool of  8 trial point group operations.


The magnetic configuration has the point symmetry C_1 .


 Subroutine INISYM returns: Found  1 space group operations
 (whereof  1 operations are pure point group operations),
 and found     1 'primitive' translations

 
 
 KPOINTS: KPOINTS created by Atomic Simulation Env

Automatic generation of k-mesh.
Space group operators:
 irot       det(A)        alpha          n_x          n_y          n_z        tau_x        tau_y        tau_z
    1     1.000000     0.000000     1.000000     0.000000     0.000000     0.000000     0.000000     0.000000
 
 Subroutine IBZKPT returns following result:
 ===========================================
 
 Found      2 irreducible k-points:
 
 Following reciprocal coordinates:
            Coordinates               Weight
  0.250000  0.250000  0.000000      2.000000
 -0.250000  0.250000  0.000000      2.000000
 
 Following cartesian coordinates:
            Coordinates               Weight
  0.019516  0.020161  0.000000      2.000000
 -0.019516  0.020161  0.000000      2.000000
 
 
 Subroutine IBZKPT_HF returns following result:
 ==============================================
 
 Found      4 k-points in 1st BZ
 the following      4 k-points will be used (e.g. in the exchange kernel)
 Following reciprocal coordinates:   # in IRBZ
  0.250000  0.250000  0.000000    0.25000000   1 t-inv F
 -0.250000  0.250000  0.000000    0.25000000   2 t-inv F
 -0.250000 -0.250000  0.000000    0.25000000   1 t-inv T
  0.250000 -0.250000  0.000000    0.25000000   2 t-inv T


--------------------------------------------------------------------------------------------------------




 Dimension of arrays:
   k-points           NKPTS =      2   k-points in BZ     NKDIM =      4   number of bands    NBANDS=    154
   number of dos      NEDOS =    301   number of ions     NIONS =     56
   non local maximal  LDIM  =      6   non local SUM 2l+1 LMDIM =     18
   total plane-waves  NPLWV = ******
   max r-space proj   IRMAX =      1   max aug-charges    IRDMAX=  14730
   dimension x,y,z NGX =    96 NGY =   90 NGZ =  150
   dimension x,y,z NGXF=   192 NGYF=  180 NGZF=  300
   support grid    NGXF=   192 NGYF=  180 NGZF=  300
   ions per type =              48   6   1   1
   NGX,Y,Z   is equivalent  to a cutoff of  12.46, 12.07, 12.47 a.u.
   NGXF,Y,Z  is equivalent  to a cutoff of  24.92, 24.13, 24.94 a.u.

 SYSTEM =  unknown system                          
 POSCAR =   C  N Fe Zn                             

 Startparameter for this run:
   NWRITE =      2    write-flag & timer
   PREC   = accura    normal or accurate (medium, high low for compatibility)
   ISTART =      1    job   : 0-new  1-cont  2-samecut
   ICHARG =      0    charge: 1-file 2-atom 10-const
   ISPIN  =      2    spin polarized calculation?
   LNONCOLLINEAR =      F non collinear calculations
   LSORBIT =      F    spin-orbit coupling
   INIWAV =      1    electr: 0-lowe 1-rand  2-diag
   LASPH  =      T    aspherical Exc in radial PAW
   METAGGA=      F    non-selfconsistent MetaGGA calc.

 Electronic Relaxation 1
   ENCUT  =  500.0 eV  36.75 Ry    6.06 a.u.  23.36 22.61 36.46*2*pi/ulx,y,z
   ENINI  =  500.0     initial cutoff
   ENAUG  =  644.9 eV  augmentation charge cutoff
   NELM   =    250;   NELMIN=  2; NELMDL=  0     # of ELM steps 
   EDIFF  = 0.1E-03   stopping-criterion for ELM
   LREAL  =      F    real-space projection
   NLSPLINE    = F    spline interpolate recip. space projectors
   LCOMPAT=      F    compatible to vasp.4.4
   GGA_COMPAT  = T    GGA compatible to vasp.4.4-vasp.4.6
   LMAXPAW     = -100 max onsite density
   LMAXMIX     =    2 max onsite mixed and CHGCAR
   VOSKOWN=      0    Vosko Wilk Nusair interpolation
   ROPT   =    0.00000   0.00000   0.00000   0.00000
 Ionic relaxation
   EDIFFG = -.3E-01   stopping-criterion for IOM
   NSW    =      0    number of steps for IOM
   NBLOCK =      1;   KBLOCK =      1    inner block; outer block 
   IBRION =     -1    ionic relax: 0-MD 1-quasi-New 2-CG
   NFREE  =      1    steps in history (QN), initial steepest desc. (CG)
   ISIF   =      2    stress and relaxation
   IWAVPR =     10    prediction:  0-non 1-charg 2-wave 3-comb
   ISYM   =      3    0-nonsym 1-usesym 2-fastsym
   LCORR  =      T    Harris-Foulkes like correction to forces

   POTIM  = 0.5000    time-step for ionic-motion
   TEIN   =    0.0    initial temperature
   TEBEG  =    0.0;   TEEND  =   0.0 temperature during run
   SMASS  =  -3.00    Nose mass-parameter (am)
   estimated Nose-frequenzy (Omega)   =  0.10E-29 period in steps =****** mass=  -0.375E-26a.u.
   SCALEE = 1.0000    scale energy and forces
   NPACO  =    256;   APACO  = 16.0  distance and # of slots for P.C.
   PSTRESS=    0.0 pullay stress

  Mass of Ions in am
   POMASS =  12.01 14.00 55.85 65.39
  Ionic Valenz
   ZVAL   =   4.00  5.00  8.00 12.00
  Atomic Wigner-Seitz radii
   RWIGS  =  -1.00 -1.00 -1.00 -1.00
  virtual crystal weights 
   VCA    =   1.00  1.00  1.00  1.00
   NELECT =     242.0000    total number of electrons
   NUPDOWN=      -1.0000    fix difference up-down

 DOS related values:
   EMIN   =  10.00;   EMAX   =-10.00  energy-range for DOS
   EFERMI =   0.00
   ISMEAR =     0;   SIGMA  =   0.10  broadening in eV -4-tet -1-fermi 0-gaus

 Electronic relaxation 2 (details)
   IALGO  =     53    algorithm
   LDIAG  =      T    sub-space diagonalisation (order eigenvalues)
   LSUBROT=      F    optimize rotation matrix (better conditioning)
   TURBO    =      0    0=normal 1=particle mesh
   IRESTART =      0    0=no restart 2=restart with 2 vectors
   NREBOOT  =      0    no. of reboots
   NMIN     =      0    reboot dimension
   EREF     =   0.00    reference energy to select bands
   IMIX   =      4    mixing-type and parameters
     AMIX     =   0.40;   BMIX     =  1.00
     AMIX_MAG =   1.60;   BMIX_MAG =  1.00
     AMIN     =   0.10
     WC   =   100.;   INIMIX=   1;  MIXPRE=   1;  MAXMIX= -45

 Intra band minimization:
   WEIMIN = 0.0000     energy-eigenvalue tresh-hold
   EBREAK =  0.16E-06  absolut break condition
   DEPER  =   0.30     relativ break condition  

   TIME   =   0.20     timestep for ELM

  volume/ion in A,a.u.               =      56.73       382.83
  Fermi-wavevector in a.u.,A,eV,Ry     =   0.693979  1.311430  6.552660  0.481607
  Thomas-Fermi vector in A             =   1.776344
 
 Write flags
   LWAVE        =      T    write WAVECAR
   LDOWNSAMPLE  =      F    k-point downsampling of WAVECAR
   LCHARG       =      T    write CHGCAR
   LVTOT        =      F    write LOCPOT, total local potential
   LVHAR        =      F    write LOCPOT, Hartree potential only
   LELF         =      F    write electronic localiz. function (ELF)
   LORBIT       =     11    0 simple, 1 ext, 2 COOP (PROOUT), +10 PAW based schemes


 Dipole corrections
   LMONO  =      F    monopole corrections only (constant potential shift)
   LDIPOL =      T    correct potential (dipole corrections)
   IDIPOL =      3    1-x, 2-y, 3-z, 4-all directions 
   EPSILON=  1.0000000 bulk dielectric constant

 Exchange correlation treatment:
   GGA     =    PE    GGA type
   LEXCH   =     8    internal setting for exchange type
   VOSKOWN=      0    Vosko Wilk Nusair interpolation
   EXXOEP  =     0    0=HF, 1=EXX-LHF (local Hartree Fock) 2=EXX OEP
   LHFCALC =     T    Hartree Fock is set to
   LSYMGRAD=     F    symmetrize gradient (conserves proper symmetry)
   PRECFOCK=normal    Normal, Fast or Accurate (Low or Medium for compatibility)
   LRHFCALC=     F    long range Hartree Fock
   LRSCOR  =     F    long range correlation only (use DFT for short range part)
   LTHOMAS =     F    Thomas Fermi screening in HF
   LMODELHF=     F    short range full HF, long range fraction AEXX
   ENCUT4O =  -1.0   cutoff for four orbital integrals eV
   LMAXFOCK=     4    L truncation for augmentation on plane wave grid
   LMAXFOCKAE=  -1    L truncation for all-electron charge restoration on plane wave grid
   NMAXFOCKAE=   1    number of basis functions for all-electron charge restoration
   LFOCKAEDFT=     F  apply the AE augmentation even for DFT
   NKREDX  =     1    reduce k-point grid by
   NKREDY  =     1    reduce k-point grid by
   NKREDZ  =     1    reduce k-point grid by
   SHIFTRED=     F    shift reduced grid of Gamma
   HFKIDENT=     F    idential grid for each k-point
   ODDONLY =     F    use only odd q-grid points
   EVENONLY=     F    use only even q-grid points
   HFALPHA =   -1.0000 decay constant for conv. correction
   MCALPHA =    0.0000 extent of test-charge in conv. correction in multipole expansion
   AEXX    =    0.2500 exact exchange contribution
   HFSCREEN=    0.2000 screening length (either q_TF or 0.3 A-1)
   HFSCREENC=   0.2000 screening length for correlation (either q_TF or 0.3 A-1)
   HFRCUT  =    0.0000 spherical cutoff for potential kernel
   ALDAX   =    0.7500 LDA exchange part
   AGGAX   =    0.7500 GGA exchange part
   ALDAC   =    1.0000 LDA correlation
   AGGAC   =    1.0000 GGA correlation
   ENCUTFOCK=  -1.0 apply spherical cutoff to Coloumb kernel
   NBANDSGWLOW=     1    first orbital included in HF term
   NBLOCK_FOCK=    64    blocking factor in FOCK_ACC
 Linear response parameters
   LEPSILON=     F    determine dielectric tensor
   LRPA    =     F    only Hartree local field effects (RPA)
   LNABLA  =     F    use nabla operator in PAW spheres
   LVEL    =     F    velocity operator in full k-point grid
   LINTERFAST=   F  fast interpolation
   KINTER  =     0    interpolate to denser k-point grid
   CSHIFT  =0.1000    complex shift for real part using Kramers Kronig
   OMEGAMAX=  -1.0    maximum frequency
   DEG_THRESHOLD= 0.2000000E-02 threshold for treating states as degnerate
   RTIME   =   -0.100 relaxation time in fs
  (WPLASMAI=    0.000 imaginary part of plasma frequency in eV, 0.658/RTIME)
   DFIELD  = 0.0000000 0.0000000 0.0000000 field for delta impulse in time
 
 Orbital magnetization related:
   ORBITALMAG=     F  switch on orbital magnetization
   LCHIMAG   =     F  perturbation theory with respect to B field
   DQ        =  0.001000  dq finite difference perturbation B field
   LLRAUG    =     F  two centre corrections for induced B field



--------------------------------------------------------------------------------------------------------


 Static calculation
 charge density and potential will be updated during run
 spin polarized calculation
 Conjugate gradient for all bands (Freysoldt, et al. PRB 79, 241103 (2009))
 perform sub-space diagonalisation
    before iterative eigenvector-optimisation
 modified Broyden-mixing scheme, WC =      100.0
 initial mixing is a Kerker type mixing with AMIX =  0.4000 and BMIX =      1.0000
 Hartree-type preconditioning will be used
 using additional bands           33
 reciprocal scheme for non local part
 use partial core corrections
 no Harris-corrections to forces 
 use gradient corrections 
 use of overlap-Matrix (Vanderbilt PP)
 Gauss-broadening in eV      SIGMA  =   0.10


--------------------------------------------------------------------------------------------------------


  energy-cutoff  :      500.00
  volume of cell :     3176.88
      direct lattice vectors                 reciprocal lattice vectors
    12.810000000  0.000000000  0.000000000     0.078064012  0.000000000  0.000000000
     0.000000000 12.400000000  0.000000000     0.000000000  0.080645161  0.000000000
     0.000000000  0.000000000 20.000000000     0.000000000  0.000000000  0.050000000

  length of vectors
    12.810000000 12.400000000 20.000000000     0.078064012  0.080645161  0.050000000


 
 old parameters found on file WAVECAR:
  energy-cutoff  :      500.00
  volume of cell :     3176.88
      direct lattice vectors                 reciprocal lattice vectors
    12.810000000  0.000000000  0.000000000     0.078064012  0.000000000  0.000000000
     0.000000000 12.400000000  0.000000000     0.000000000  0.080645161  0.000000000
     0.000000000  0.000000000 20.000000000     0.000000000  0.000000000  0.050000000

  length of vectors

 
 k-points in units of 2pi/SCALE and weight: KPOINTS created by Atomic Simulation Env
   0.01951600  0.02016129  0.00000000       0.500
  -0.01951600  0.02016129  0.00000000       0.500
 
 k-points in reciprocal lattice and weights: KPOINTS created by Atomic Simulation Env
   0.25000000  0.25000000  0.00000000       0.500
  -0.25000000  0.25000000  0.00000000       0.500
 
 position of ions in fractional coordinates (direct lattice) 
   0.22156797  0.00044365  0.50181494
   0.05520026  0.10113317  0.50122388
   0.10992577  0.00037730  0.50129869
   0.27697278  0.10069466  0.50175393
   0.22327914  0.20221792  0.50092627
   0.05534754  0.30137554  0.50048213
   0.11089166  0.20159705  0.50103834
   0.28198264  0.30130650  0.49952255
   0.22547718  0.40470766  0.49988475
   0.05578853  0.50039999  0.49982923
   0.11208766  0.40089363  0.49996448
   0.22588426  0.59575017  0.50037846
   0.05547431  0.69930551  0.49999995
   0.11242645  0.59980162  0.49979147
   0.28265183  0.69954213  0.50112389
   0.22336416  0.79855749  0.50138142
   0.05525823  0.89964772  0.50099693
   0.11099872  0.79912354  0.50073319
   0.27704335  0.90010648  0.50225166
   0.55457331  0.00062331  0.50364909
   0.38844082  0.10022776  0.50248589
   0.44377871  0.00058486  0.50365991
   0.60986671  0.10028438  0.50248342
   0.55607506  0.20084775  0.50071004
   0.44220425  0.20079964  0.50069969
   0.55638797  0.80019866  0.50309343
   0.38847847  0.90078641  0.50336537
   0.44209973  0.80014771  0.50311822
   0.60994391  0.90085157  0.50333928
   0.88843647  0.00041868  0.50131673
   0.72133108  0.10076349  0.50176525
   0.77679636  0.00050398  0.50182652
   0.94310912  0.10116502  0.50123202
   0.88736236  0.20164753  0.50104938
   0.71622027  0.30143110  0.49954731
   0.77496044  0.20231017  0.50094153
   0.94290674  0.30140263  0.50048791
   0.88619608  0.40095437  0.49996747
   0.77278690  0.40481837  0.49990002
   0.94259138  0.50040612  0.49982113
   0.88602761  0.59985484  0.49976461
   0.71590806  0.69966832  0.50107130
   0.77260265  0.59586292  0.50034760
   0.94297419  0.69933508  0.49998705
   0.88745909  0.79918521  0.50072296
   0.72137771  0.90018178  0.50222869
   0.77512159  0.79866816  0.50134761
   0.94315305  0.89968213  0.50100413
   0.27843213  0.50009476  0.50069390
   0.38986067  0.29795278  0.49775847
   0.60833197  0.29805420  0.49779872
   0.39002116  0.70378952  0.50159558
   0.60855960  0.70389624  0.50152752
   0.71994704  0.50027875  0.50070391
   0.49888055  0.40104062  0.46333479
   0.49964434  0.58787940  0.47874740
 
 position of ions in cartesian coordinates  (Angst):
   2.83828574  0.00550131 10.03629885
   0.70711535  1.25405131 10.02447757
   1.40814907  0.00467850 10.02597381
   3.54802133  1.24861377 10.03507852
   2.86020574  2.50750223 10.01852541
   0.70900204  3.73705668 10.00964259
   1.42052215  2.49980347 10.02076672
   3.61219758  3.73620063  9.99045092
   2.88836269  5.01837504  9.99769503
   0.71465102  6.20495983  9.99658463
   1.43584288  4.97108104  9.99928968
   2.89357743  7.38730215 10.00756911
   0.71062594  8.67138837  9.99999908
   1.44018279  7.43754004  9.99582944
   3.62076997  8.67432238 10.02247776
   2.86129490  9.90211290 10.02762833
   0.70785796 11.15563175 10.01993864
   1.42189354  9.90913191 10.01466384
   3.54892537 11.16132039 10.04503322
   7.10408414  0.00772899 10.07298170
   4.97592689  1.24282421 10.04971781
   5.68480532  0.00725232 10.07319824
   7.81239257  1.24352630 10.04966835
   7.12332156  2.49051208 10.01420077
   5.66463639  2.48991555 10.01399370
   7.12732994  9.92246344 10.06186862
   4.97640917 11.16975154 10.06730744
   5.66329753  9.92183161 10.06236434
   7.81338144 11.17055945 10.06678554
  11.38087115  0.00519164 10.02633464
   9.24025118  1.24946722 10.03530502
   9.95076140  0.00624937 10.03653033
  12.08122777  1.25444630 10.02464038
  11.36711181  2.50042938 10.02098770
   9.17478165  3.73774563  9.99094622
   9.92724330  2.50864615 10.01883068
  12.07863539  3.73739265 10.00975819
  11.35217176  4.97183419  9.99934936
   9.89940025  5.01974777  9.99800043
  12.07459559  6.20503590  9.99642266
  11.35001370  7.43820006  9.99529211
   9.17078225  8.67588721 10.02142609
   9.89703998  7.38870026 10.00695209
  12.07949937  8.67175502  9.99974098
  11.36835089  9.90989664 10.01445929
   9.24084847 11.16225407 10.04457372
   9.92930757  9.90348516 10.02695213
  12.08179055 11.15605842 10.02008253
   3.56671559  6.20117499 10.01387806
   4.99411523  3.69461445  9.95516945
   7.79273256  3.69587207  9.95597448
   4.99617109  8.72699003 10.03191151
   7.79564844  8.72831338 10.03055040
   9.22252155  6.20345653 10.01407811
   6.39065982  4.97290373  9.26669581
   6.40044395  7.28970457  9.57494793
 


--------------------------------------------------------------------------------------------------------


 k-point  1 :   0.2500 0.2500 0.0000  plane waves:   80679
 k-point  2 :  -0.2500 0.2500 0.0000  plane waves:   80679

 maximum and minimum number of plane-waves per node :      2549     2492

 maximum number of plane-waves:     80679
 maximum index in each direction: 
   IXMAX=   23   IYMAX=   22   IZMAX=   36
   IXMIN=  -23   IYMIN=  -22   IZMIN=  -36


 parallel 3D FFT for wavefunctions:
    minimum data exchange during FFTs selected (reduces bandwidth)
 parallel 3D FFT for charge:
    minimum data exchange during FFTs selected (reduces bandwidth)


 FFT grid for exact exchange (Hartree Fock) 
  NGX = 72; NGY = 70; NGZ =112

 
 Radii for the augmentation spheres in the non-local exchange
 for species   1 augmentation radius   0.874 (default was   0.699)
       energy cutoff for augmentation   2000.0
 for species   2 augmentation radius   0.886 (default was   0.709)
       energy cutoff for augmentation   2000.0
 for species   3 augmentation radius   1.263 (default was   1.010)
       energy cutoff for augmentation   2000.0
 for species   4 augmentation radius   1.190 (default was   0.952)
       energy cutoff for augmentation   2000.0

 real space projection operators:
  total allocation   :       2387.35 KBytes
  max/ min on nodes  :        135.38         35.79

 Maximum index for augmentation-charges in exchange          109
  SETUP_FOCK is finished

 total amount of memory used by VASP MPI-rank0   161304. kBytes
=======================================================================

   base      :      30000. kBytes
   nonl-proj :       5236. kBytes
   fftplans  :      13453. kBytes
   grid      :      34560. kBytes
   one-center:         62. kBytes
   HF        :         23. kBytes
   nonlr-proj:       1596. kBytes
   wavefun   :      76374. kBytes
 
     INWAV:  cpu time    3.5232: real time    3.5244
 Broyden mixing: mesh for mixing (old mesh)
   NGX = 47   NGY = 45   NGZ = 73
  (NGX  =192   NGY  =180   NGZ  =300)
  gives a total of 154395 points

 charge density for first step will be calculated from the start-wavefunctions


--------------------------------------------------------------------------------------------------------


 Maximum index for augmentation-charges          697 (set IRDMAX)


--------------------------------------------------------------------------------------------------------


 initial charge from wavefunction
 First call to EWALD:  gamma=   0.121
 Maximum number of real-space cells 3x 3x 2
 Maximum number of reciprocal cells 2x 2x 4

    FEWALD:  cpu time    0.0039: real time    0.0039


--------------------------------------- Iteration      1(   1)  ---------------------------------------


    POTLOK:  cpu time    1.3141: real time    1.3170
    SETDIJ:  cpu time    2.0865: real time    3.7806
    TRIAL :  cpu time  520.4106: real time  520.6791
    CORREC:  cpu time    0.0020: real time    0.0023
    CHARGE:  cpu time    1.6430: real time    1.6432
    --------------------------------------------
      LOOP:  cpu time  525.4717: real time  527.4405

 eigenvalue-minimisations  :     0
 total energy-change (2. order) :-0.5776060E+03  (-0.4042883E+00)
 number of electron     242.0000020 magnetization       4.0000148
 augmentation part       18.0220070 magnetization       2.5134905

 DIPCOR: dipole corrections for dipol
 direction  3 min pos     1,
 dipolmoment           0.000000      0.000000      0.099780 electrons x Angstroem
 Tr[quadrupol]     -6536.785528

 energy correction for charged system         0.000000 eV
 dipol+quadrupol energy correction           -0.000285 eV
 added-field ion interaction          0.037272 eV  (added to PSCEN)


 Free energy of the ion-electron system (eV)
  ---------------------------------------------------
  alpha Z        PSCENC =       101.60509098
  Ewald energy   TEWEN  =     38101.96567012
  -Hartree energ DENC   =    -47476.75652843
  -exchange      EXHF   =       559.43999762
  -V(xc)+E(xc)   XCENC  =       645.30441612
  PAW double counting   =     26063.70627971   -26266.38980563
  entropy T*S    EENTRO =        -0.00020198
  eigenvalues    EBANDS =     -3192.64457689
  atomic energy  EATOM  =     10886.16394542
  ---------------------------------------------------
  free energy    TOTEN  =      -577.60603876 eV

  energy without entropy =     -577.60583678  energy(sigma->0) =     -577.60593777
  exchange ACFDT corr.  =        -0.00051340  see jH, gK, PRB 81, 115126


--------------------------------------------------------------------------------------------------------




--------------------------------------- Iteration      1(   2)  ---------------------------------------


    POTLOK:  cpu time    1.3201: real time    1.3203
    SETDIJ:  cpu time    2.0843: real time    2.0845
    TRIAL :  cpu time  520.0001: real time  520.0862
    CORREC:  cpu time    0.0019: real time    0.0019
    CHARGE:  cpu time    1.6548: real time    1.6549
    --------------------------------------------
      LOOP:  cpu time  525.0635: real time  525.1501

 eigenvalue-minimisations  :     0
 total energy-change (2. order) :-0.3278962E+00  (-0.3331450E+00)
 number of electron     242.0000020 magnetization       4.0000094
 augmentation part       18.0255017 magnetization       2.5522630

 DIPCOR: dipole corrections for dipol
 direction  3 min pos     1,
 dipolmoment           0.000000      0.000000      0.094519 electrons x Angstroem
 Tr[quadrupol]     -6536.625698

 energy correction for charged system         0.000000 eV
 dipol+quadrupol energy correction           -0.000255 eV
 added-field ion interaction          0.035306 eV  (added to PSCEN)


 Free energy of the ion-electron system (eV)
  ---------------------------------------------------
  alpha Z        PSCENC =       101.60315496
  Ewald energy   TEWEN  =     38101.96567012
  -Hartree energ DENC   =    -47466.94535340
  -exchange      EXHF   =       559.35648910
  -V(xc)+E(xc)   XCENC  =       645.06898681
  PAW double counting   =     26186.89958336   -26391.39251132
  entropy T*S    EENTRO =        -0.00007072
  eigenvalues    EBANDS =     -3200.65369799
  atomic energy  EATOM  =     10886.16394542
  ---------------------------------------------------
  free energy    TOTEN  =      -577.93393492 eV

  energy without entropy =     -577.93386420  energy(sigma->0) =     -577.93389956
  exchange ACFDT corr.  =        -0.00012946  see jH, gK, PRB 81, 115126


--------------------------------------------------------------------------------------------------------




--------------------------------------- Iteration      1(   3)  ---------------------------------------


    POTLOK:  cpu time    1.3243: real time    1.3249
    SETDIJ:  cpu time    2.0840: real time    2.0843
    TRIAL :  cpu time  519.9388: real time  520.1451
    CORREC:  cpu time    0.0019: real time    0.0022
    CHARGE:  cpu time    1.6423: real time    1.6424
    --------------------------------------------
      LOOP:  cpu time  524.9936: real time  525.4440

 eigenvalue-minimisations  :     0
 total energy-change (2. order) :-0.2516134E+00  (-0.1896670E+00)
 number of electron     242.0000020 magnetization       4.0000064
 augmentation part       18.0091201 magnetization       2.5839348

 DIPCOR: dipole corrections for dipol
 direction  3 min pos     1,
 dipolmoment           0.000000      0.000000      0.097235 electrons x Angstroem
 Tr[quadrupol]     -6536.456474

 energy correction for charged system         0.000000 eV
 dipol+quadrupol energy correction           -0.000270 eV
 added-field ion interaction          0.036321 eV  (added to PSCEN)


 Free energy of the ion-electron system (eV)
  ---------------------------------------------------
  alpha Z        PSCENC =       101.60415476
  Ewald energy   TEWEN  =     38101.96567012
  -Hartree energ DENC   =    -47454.27015353
  -exchange      EXHF   =       559.28530091
  -V(xc)+E(xc)   XCENC  =       644.77592046
  PAW double counting   =     26341.03229211   -26546.33579184
  entropy T*S    EENTRO =        -0.00002741
  eigenvalues    EBANDS =     -3212.40681601
  atomic energy  EATOM  =     10886.16394542
  ---------------------------------------------------
  free energy    TOTEN  =      -578.18554832 eV

  energy without entropy =     -578.18552091  energy(sigma->0) =     -578.18553462
  exchange ACFDT corr.  =        -0.00003239  see jH, gK, PRB 81, 115126


--------------------------------------------------------------------------------------------------------




--------------------------------------- Iteration      1(   4)  ---------------------------------------


    POTLOK:  cpu time    1.3263: real time    1.3265
    SETDIJ:  cpu time    2.0847: real time    2.0848
    TRIAL :  cpu time  519.5501: real time  519.7376
    CORREC:  cpu time    0.0017: real time    0.0020
    CHARGE:  cpu time    1.6471: real time    1.6478
    --------------------------------------------
      LOOP:  cpu time  524.6121: real time  524.8007

 eigenvalue-minimisations  :     0
 total energy-change (2. order) :-0.1425247E+00  (-0.1010311E+00)
 number of electron     242.0000020 magnetization       4.0000035
 augmentation part       17.9983389 magnetization       2.6043068

 DIPCOR: dipole corrections for dipol
 direction  3 min pos     1,
 dipolmoment           0.000000      0.000000      0.101584 electrons x Angstroem
 Tr[quadrupol]     -6536.374095

 energy correction for charged system         0.000000 eV
 dipol+quadrupol energy correction           -0.000295 eV
 added-field ion interaction          0.037945 eV  (added to PSCEN)


 Free energy of the ion-electron system (eV)
  ---------------------------------------------------
  alpha Z        PSCENC =       101.60575443
  Ewald energy   TEWEN  =     38101.96567012
  -Hartree energ DENC   =    -47445.66814921
  -exchange      EXHF   =       559.32963538
  -V(xc)+E(xc)   XCENC  =       644.58717138
  PAW double counting   =     26473.74856420   -26678.32730130
  entropy T*S    EENTRO =        -0.00001156
  eigenvalues    EBANDS =     -3221.73333608
  atomic energy  EATOM  =     10886.16394542
  ---------------------------------------------------
  free energy    TOTEN  =      -578.32807307 eV

  energy without entropy =     -578.32806152  energy(sigma->0) =     -578.32806730
  exchange ACFDT corr.  =        -0.00001050  see jH, gK, PRB 81, 115126


--------------------------------------------------------------------------------------------------------




--------------------------------------- Iteration      1(   5)  ---------------------------------------


    POTLOK:  cpu time    1.3253: real time    1.3260
    SETDIJ:  cpu time    2.0827: real time    2.0831
    TRIAL :  cpu time  516.1516: real time  516.3860
    CORREC:  cpu time    0.0018: real time    0.0020
    CHARGE:  cpu time    1.6410: real time    1.6411
    --------------------------------------------
      LOOP:  cpu time  521.2053: real time  521.4412

 eigenvalue-minimisations  :     0
 total energy-change (2. order) :-0.7657598E-01  (-0.5772584E-01)
 number of electron     242.0000020 magnetization       4.0000017
 augmentation part       18.0028255 magnetization       2.6163077

 DIPCOR: dipole corrections for dipol
 direction  3 min pos     1,
 dipolmoment           0.000000      0.000000      0.102545 electrons x Angstroem
 Tr[quadrupol]     -6536.382493

 energy correction for charged system         0.000000 eV
 dipol+quadrupol energy correction           -0.000301 eV
 added-field ion interaction          0.038305 eV  (added to PSCEN)


 Free energy of the ion-electron system (eV)
  ---------------------------------------------------
  alpha Z        PSCENC =       101.60610796
  Ewald energy   TEWEN  =     38101.96567012
  -Hartree energ DENC   =    -47444.10378057
  -exchange      EXHF   =       559.50748949
  -V(xc)+E(xc)   XCENC  =       644.57386860
  PAW double counting   =     26571.50440669   -26775.17903445
  entropy T*S    EENTRO =        -0.00000529
  eigenvalues    EBANDS =     -3224.44331075
  atomic energy  EATOM  =     10886.16394542
  ---------------------------------------------------
  free energy    TOTEN  =      -578.40464905 eV

  energy without entropy =     -578.40464377  energy(sigma->0) =     -578.40464641
  exchange ACFDT corr.  =        -0.00000396  see jH, gK, PRB 81, 115126


--------------------------------------------------------------------------------------------------------




--------------------------------------- Iteration      1(   6)  ---------------------------------------


    POTLOK:  cpu time    1.3242: real time    1.3243
    SETDIJ:  cpu time    2.0856: real time    2.0858
    TRIAL :  cpu time  516.4273: real time  516.5185
    CORREC:  cpu time    0.0017: real time    0.0020
    CHARGE:  cpu time    1.6401: real time    1.6406
    --------------------------------------------
      LOOP:  cpu time  521.4812: real time  521.5733

 eigenvalue-minimisations  :     0
 total energy-change (2. order) :-0.4689243E-01  (-0.3859302E-01)
 number of electron     242.0000020 magnetization       4.0000008
 augmentation part       18.0129629 magnetization       2.6238558

 DIPCOR: dipole corrections for dipol
 direction  3 min pos     1,
 dipolmoment           0.000000      0.000000      0.101434 electrons x Angstroem
 Tr[quadrupol]     -6536.432159

 energy correction for charged system         0.000000 eV
 dipol+quadrupol energy correction           -0.000294 eV
 added-field ion interaction          0.037890 eV  (added to PSCEN)


 Free energy of the ion-electron system (eV)
  ---------------------------------------------------
  alpha Z        PSCENC =       101.60569955
  Ewald energy   TEWEN  =     38101.96567012
  -Hartree energ DENC   =    -47447.49558498
  -exchange      EXHF   =       559.74871581
  -V(xc)+E(xc)   XCENC  =       644.68712741
  PAW double counting   =     26636.50147346   -26840.07599722
  entropy T*S    EENTRO =        -0.00000264
  eigenvalues    EBANDS =     -3221.55258577
  atomic energy  EATOM  =     10886.16394542
  ---------------------------------------------------
  free energy    TOTEN  =      -578.45154148 eV

  energy without entropy =     -578.45153884  energy(sigma->0) =     -578.45154016
  exchange ACFDT corr.  =        -0.00000168  see jH, gK, PRB 81, 115126


--------------------------------------------------------------------------------------------------------




--------------------------------------- Iteration      1(   7)  ---------------------------------------


    POTLOK:  cpu time    1.3242: real time    1.3247
    SETDIJ:  cpu time    2.0847: real time    2.0850
    TRIAL :  cpu time  516.1700: real time  516.3571
    CORREC:  cpu time    0.0017: real time    0.0020
    CHARGE:  cpu time    1.6421: real time    1.6427
    --------------------------------------------
      LOOP:  cpu time  521.2251: real time  521.4139

 eigenvalue-minimisations  :     0
 total energy-change (2. order) :-0.3210610E-01  (-0.2512689E-01)
 number of electron     242.0000020 magnetization       4.0000004
 augmentation part       18.0196719 magnetization       2.6296206

 DIPCOR: dipole corrections for dipol
 direction  3 min pos     1,
 dipolmoment           0.000000      0.000000      0.099886 electrons x Angstroem
 Tr[quadrupol]     -6536.478190

 energy correction for charged system         0.000000 eV
 dipol+quadrupol energy correction           -0.000285 eV
 added-field ion interaction          0.037311 eV  (added to PSCEN)


 Free energy of the ion-electron system (eV)
  ---------------------------------------------------
  alpha Z        PSCENC =       101.60513021
  Ewald energy   TEWEN  =     38101.96567012
  -Hartree energ DENC   =    -47451.72185275
  -exchange      EXHF   =       559.96179348
  -V(xc)+E(xc)   XCENC  =       644.82140600
  PAW double counting   =     26675.51989518   -26879.46424122
  entropy T*S    EENTRO =        -0.00000144
  eigenvalues    EBANDS =     -3217.33539140
  atomic energy  EATOM  =     10886.16394542
  ---------------------------------------------------
  free energy    TOTEN  =      -578.48364758 eV

  energy without entropy =     -578.48364613  energy(sigma->0) =     -578.48364686
  exchange ACFDT corr.  =        -0.00000080  see jH, gK, PRB 81, 115126


--------------------------------------------------------------------------------------------------------




--------------------------------------- Iteration      1(   8)  ---------------------------------------


    POTLOK:  cpu time    1.3234: real time    1.3242
    SETDIJ:  cpu time    2.0834: real time    2.0837
    TRIAL :  cpu time  516.5472: real time  516.8071
    CORREC:  cpu time    0.0017: real time    0.0020
    CHARGE:  cpu time    1.6403: real time    1.6410
    --------------------------------------------
      LOOP:  cpu time  521.5980: real time  521.8600

 eigenvalue-minimisations  :     0
 total energy-change (2. order) :-0.2142125E-01  (-0.1748969E-01)
 number of electron     242.0000020 magnetization       4.0000002
 augmentation part       18.0210686 magnetization       2.6349558

 DIPCOR: dipole corrections for dipol
 direction  3 min pos     1,
 dipolmoment           0.000000      0.000000      0.098269 electrons x Angstroem
 Tr[quadrupol]     -6536.502244

 energy correction for charged system         0.000000 eV
 dipol+quadrupol energy correction           -0.000276 eV
 added-field ion interaction          0.036707 eV  (added to PSCEN)


 Free energy of the ion-electron system (eV)
  ---------------------------------------------------
  alpha Z        PSCENC =       101.60453511
  Ewald energy   TEWEN  =     38101.96567012
  -Hartree energ DENC   =    -47454.31020345
  -exchange      EXHF   =       560.10236811
  -V(xc)+E(xc)   XCENC  =       644.91130964
  PAW double counting   =     26696.12016523   -26900.36081732
  entropy T*S    EENTRO =        -0.00000086
  eigenvalues    EBANDS =     -3214.70204025
  atomic energy  EATOM  =     10886.16394542
  ---------------------------------------------------
  free energy    TOTEN  =      -578.50506883 eV

  energy without entropy =     -578.50506797  energy(sigma->0) =     -578.50506840
  exchange ACFDT corr.  =        -0.00000042  see jH, gK, PRB 81, 115126


--------------------------------------------------------------------------------------------------------




--------------------------------------- Iteration      1(   9)  ---------------------------------------


    POTLOK:  cpu time    1.3153: real time    1.3158
    SETDIJ:  cpu time    2.0784: real time    2.0787
    TRIAL :  cpu time  515.6853: real time  515.9402
    CORREC:  cpu time    0.0016: real time    0.0016
    CHARGE:  cpu time    1.6395: real time    1.6403
    --------------------------------------------
      LOOP:  cpu time  520.7225: real time  520.9790

 eigenvalue-minimisations  :     0
 total energy-change (2. order) :-0.1542078E-01  (-0.1293366E-01)
 number of electron     242.0000020 magnetization       4.0000000
 augmentation part       18.0196024 magnetization       2.6402543

 DIPCOR: dipole corrections for dipol
 direction  3 min pos     1,
 dipolmoment           0.000000      0.000000      0.096572 electrons x Angstroem
 Tr[quadrupol]     -6536.506867

 energy correction for charged system         0.000000 eV
 dipol+quadrupol energy correction           -0.000267 eV
 added-field ion interaction          0.036073 eV  (added to PSCEN)


 Free energy of the ion-electron system (eV)
  ---------------------------------------------------
  alpha Z        PSCENC =       101.60391082
  Ewald energy   TEWEN  =     38101.96567012
  -Hartree energ DENC   =    -47455.01551104
  -exchange      EXHF   =       560.17622015
  -V(xc)+E(xc)   XCENC  =       644.94923362
  PAW double counting   =     26705.25739607   -26909.53922116
  entropy T*S    EENTRO =        -0.00000056
  eigenvalues    EBANDS =     -3214.08213276
  atomic energy  EATOM  =     10886.16394542
  ---------------------------------------------------
  free energy    TOTEN  =      -578.52048961 eV

  energy without entropy =     -578.52048905  energy(sigma->0) =     -578.52048933
  exchange ACFDT corr.  =        -0.00000025  see jH, gK, PRB 81, 115126


--------------------------------------------------------------------------------------------------------




--------------------------------------- Iteration      1(  10)  ---------------------------------------


    POTLOK:  cpu time    1.3163: real time    1.3168
    SETDIJ:  cpu time    2.0851: real time    2.0853
    TRIAL :  cpu time  516.2482: real time  516.3491
    CORREC:  cpu time    0.0017: real time    0.0019
    CHARGE:  cpu time    1.6408: real time    1.6414
    --------------------------------------------
      LOOP:  cpu time  521.2942: real time  521.3968

 eigenvalue-minimisations  :     0
 total energy-change (2. order) :-0.1148129E-01  (-0.9451477E-02)
 number of electron     242.0000020 magnetization       4.0000000
 augmentation part       18.0187127 magnetization       2.6454116

 DIPCOR: dipole corrections for dipol
 direction  3 min pos     1,
 dipolmoment           0.000000      0.000000      0.094951 electrons x Angstroem
 Tr[quadrupol]     -6536.501891

 energy correction for charged system         0.000000 eV
 dipol+quadrupol energy correction           -0.000258 eV
 added-field ion interaction          0.035468 eV  (added to PSCEN)


 Free energy of the ion-electron system (eV)
  ---------------------------------------------------
  alpha Z        PSCENC =       101.60331424
  Ewald energy   TEWEN  =     38101.96567012
  -Hartree energ DENC   =    -47454.71053919
  -exchange      EXHF   =       560.21144706
  -V(xc)+E(xc)   XCENC  =       644.95771705
  PAW double counting   =     26708.19110938   -26912.37522392
  entropy T*S    EENTRO =        -0.00000039
  eigenvalues    EBANDS =     -3214.53941051
  atomic energy  EATOM  =     10886.16394542
  ---------------------------------------------------
  free energy    TOTEN  =      -578.53197091 eV

  energy without entropy =     -578.53197051  energy(sigma->0) =     -578.53197071
  exchange ACFDT corr.  =        -0.00000016  see jH, gK, PRB 81, 115126


--------------------------------------------------------------------------------------------------------




--------------------------------------- Iteration      1(  11)  ---------------------------------------


    POTLOK:  cpu time    1.3132: real time    1.3137
    SETDIJ:  cpu time    2.0866: real time    2.0871
    TRIAL :  cpu time  517.8417: real time  518.1061
    CORREC:  cpu time    0.0017: real time    0.0020
    CHARGE:  cpu time    1.6499: real time    1.6504
    --------------------------------------------
      LOOP:  cpu time  522.8962: real time  523.1667

 eigenvalue-minimisations  :     0
 total energy-change (2. order) :-0.8529330E-02  (-0.7173049E-02)
 number of electron     242.0000021 magnetization       3.9999999
 augmentation part       18.0191575 magnetization       2.6502186

 DIPCOR: dipole corrections for dipol
 direction  3 min pos     1,
 dipolmoment           0.000000      0.000000      0.093500 electrons x Angstroem
 Tr[quadrupol]     -6536.495744

 energy correction for charged system         0.000000 eV
 dipol+quadrupol energy correction           -0.000250 eV
 added-field ion interaction          0.034926 eV  (added to PSCEN)


 Free energy of the ion-electron system (eV)
  ---------------------------------------------------
  alpha Z        PSCENC =       101.60278005
  Ewald energy   TEWEN  =     38101.96567012
  -Hartree energ DENC   =    -47454.36590624
  -exchange      EXHF   =       560.23548826
  -V(xc)+E(xc)   XCENC  =       644.96273268
  PAW double counting   =     26708.48158474   -26912.63279503
  entropy T*S    EENTRO =        -0.00000030
  eigenvalues    EBANDS =     -3214.95399985
  atomic energy  EATOM  =     10886.16394542
  ---------------------------------------------------
  free energy    TOTEN  =      -578.54050024 eV

  energy without entropy =     -578.54049994  energy(sigma->0) =     -578.54050009
  exchange ACFDT corr.  =        -0.00000011  see jH, gK, PRB 81, 115126


--------------------------------------------------------------------------------------------------------




--------------------------------------- Iteration      1(  12)  ---------------------------------------


    POTLOK:  cpu time    1.3104: real time    1.3109
    SETDIJ:  cpu time    2.0778: real time    2.0780
    TRIAL :  cpu time  516.4162: real time  516.6371
    CORREC:  cpu time    0.0015: real time    0.0018
    CHARGE:  cpu time    1.6399: real time    1.6404
    --------------------------------------------
      LOOP:  cpu time  521.4481: real time  521.6704

 eigenvalue-minimisations  :     0
 total energy-change (2. order) :-0.6565287E-02  (-0.5535007E-02)
 number of electron     242.0000021 magnetization       3.9999999
 augmentation part       18.0197224 magnetization       2.6545708

 DIPCOR: dipole corrections for dipol
 direction  3 min pos     1,
 dipolmoment           0.000000      0.000000      0.092133 electrons x Angstroem
 Tr[quadrupol]     -6536.491572

 energy correction for charged system         0.000000 eV
 dipol+quadrupol energy correction           -0.000243 eV
 added-field ion interaction          0.034415 eV  (added to PSCEN)


 Free energy of the ion-electron system (eV)
  ---------------------------------------------------
  alpha Z        PSCENC =       101.60227648
  Ewald energy   TEWEN  =     38101.96567012
  -Hartree energ DENC   =    -47454.29820899
  -exchange      EXHF   =       560.25933166
  -V(xc)+E(xc)   XCENC  =       644.97291817
  PAW double counting   =     26708.14652446   -26912.36538645
  entropy T*S    EENTRO =        -0.00000023
  eigenvalues    EBANDS =     -3214.99413611
  atomic energy  EATOM  =     10886.16394542
  ---------------------------------------------------
  free energy    TOTEN  =      -578.54706552 eV

  energy without entropy =     -578.54706529  energy(sigma->0) =     -578.54706541
  exchange ACFDT corr.  =        -0.00000008  see jH, gK, PRB 81, 115126


--------------------------------------------------------------------------------------------------------




--------------------------------------- Iteration      1(  13)  ---------------------------------------


    POTLOK:  cpu time    1.3085: real time    1.3090
    SETDIJ:  cpu time    2.0750: real time    2.0781
    TRIAL :  cpu time  517.3864: real time  517.6086
    CORREC:  cpu time    0.0015: real time    0.0018
    CHARGE:  cpu time    1.6402: real time    1.6408
    --------------------------------------------
      LOOP:  cpu time  522.4142: real time  522.6438

 eigenvalue-minimisations  :     0
 total energy-change (2. order) :-0.5106855E-02  (-0.4340226E-02)
 number of electron     242.0000021 magnetization       3.9999999
 augmentation part       18.0196091 magnetization       2.6584767

 DIPCOR: dipole corrections for dipol
 direction  3 min pos     1,
 dipolmoment           0.000000      0.000000      0.090756 electrons x Angstroem
 Tr[quadrupol]     -6536.488813

 energy correction for charged system         0.000000 eV
 dipol+quadrupol energy correction           -0.000235 eV
 added-field ion interaction          0.033901 eV  (added to PSCEN)


 Free energy of the ion-electron system (eV)
  ---------------------------------------------------
  alpha Z        PSCENC =       101.60176929
  Ewald energy   TEWEN  =     38101.96567012
  -Hartree energ DENC   =    -47454.33180950
  -exchange      EXHF   =       560.28146359
  -V(xc)+E(xc)   XCENC  =       644.98373519
  PAW double counting   =     26708.03746111   -26912.33568742
  entropy T*S    EENTRO =        -0.00000019
  eigenvalues    EBANDS =     -3214.91871995
  atomic energy  EATOM  =     10886.16394542
  ---------------------------------------------------
  free energy    TOTEN  =      -578.55217238 eV

  energy without entropy =     -578.55217219  energy(sigma->0) =     -578.55217228
  exchange ACFDT corr.  =        -0.00000006  see jH, gK, PRB 81, 115126


--------------------------------------------------------------------------------------------------------




--------------------------------------- Iteration      1(  14)  ---------------------------------------


    POTLOK:  cpu time    1.3055: real time    1.3059
    SETDIJ:  cpu time    2.0768: real time    2.0770
    TRIAL :  cpu time  516.9713: real time  517.1946
    CORREC:  cpu time    0.0013: real time    0.0016
    CHARGE:  cpu time    1.6389: real time    1.6395
    --------------------------------------------
      LOOP:  cpu time  521.9971: real time  522.2232

 eigenvalue-minimisations  :     0
 total energy-change (2. order) :-0.4045678E-02  (-0.3482515E-02)
 number of electron     242.0000021 magnetization       3.9999999
 augmentation part       18.0188580 magnetization       2.6619838

 DIPCOR: dipole corrections for dipol
 direction  3 min pos     1,
 dipolmoment           0.000000      0.000000      0.089384 electrons x Angstroem
 Tr[quadrupol]     -6536.486428

 energy correction for charged system         0.000000 eV
 dipol+quadrupol energy correction           -0.000228 eV
 added-field ion interaction          0.033388 eV  (added to PSCEN)


 Free energy of the ion-electron system (eV)
  ---------------------------------------------------
  alpha Z        PSCENC =       101.60126383
  Ewald energy   TEWEN  =     38101.96567012
  -Hartree energ DENC   =    -47454.30404912
  -exchange      EXHF   =       560.29950419
  -V(xc)+E(xc)   XCENC  =       644.99112865
  PAW double counting   =     26708.41006703   -26912.74337819
  entropy T*S    EENTRO =        -0.00000017
  eigenvalues    EBANDS =     -3214.94036981
  atomic energy  EATOM  =     10886.16394542
  ---------------------------------------------------
  free energy    TOTEN  =      -578.55621806 eV

  energy without entropy =     -578.55621789  energy(sigma->0) =     -578.55621797
  exchange ACFDT corr.  =        -0.00000005  see jH, gK, PRB 81, 115126


--------------------------------------------------------------------------------------------------------




--------------------------------------- Iteration      1(  15)  ---------------------------------------


    POTLOK:  cpu time    1.3089: real time    1.3094
    SETDIJ:  cpu time    2.0732: real time    2.0735
    TRIAL :  cpu time  516.9214: real time  517.1615
    CORREC:  cpu time    0.0015: real time    0.0018
    CHARGE:  cpu time    1.6413: real time    1.6417
    --------------------------------------------
      LOOP:  cpu time  521.9486: real time  522.1903

 eigenvalue-minimisations  :     0
 total energy-change (2. order) :-0.3265372E-02  (-0.2818191E-02)
 number of electron     242.0000021 magnetization       3.9999999
 augmentation part       18.0180784 magnetization       2.6651397

 DIPCOR: dipole corrections for dipol
 direction  3 min pos     1,
 dipolmoment           0.000000      0.000000      0.088090 electrons x Angstroem
 Tr[quadrupol]     -6536.483984

 energy correction for charged system         0.000000 eV
 dipol+quadrupol energy correction           -0.000222 eV
 added-field ion interaction          0.032905 eV  (added to PSCEN)


 Free energy of the ion-electron system (eV)
  ---------------------------------------------------
  alpha Z        PSCENC =       101.60078732
  Ewald energy   TEWEN  =     38101.96567012
  -Hartree energ DENC   =    -47454.19512763
  -exchange      EXHF   =       560.31366145
  -V(xc)+E(xc)   XCENC  =       644.99498674
  PAW double counting   =     26709.26567576   -26913.59393874
  entropy T*S    EENTRO =        -0.00000015
  eigenvalues    EBANDS =     -3215.07514370
  atomic energy  EATOM  =     10886.16394542
  ---------------------------------------------------
  free energy    TOTEN  =      -578.55948343 eV

  energy without entropy =     -578.55948328  energy(sigma->0) =     -578.55948336
  exchange ACFDT corr.  =        -0.00000004  see jH, gK, PRB 81, 115126


--------------------------------------------------------------------------------------------------------




--------------------------------------- Iteration      1(  16)  ---------------------------------------


    POTLOK:  cpu time    1.3055: real time    1.3062
    SETDIJ:  cpu time    2.0730: real time    2.0733
    TRIAL :  cpu time  517.4216: real time  517.6380
    CORREC:  cpu time    0.0015: real time    0.0018
    CHARGE:  cpu time    1.6424: real time    1.6428
    --------------------------------------------
      LOOP:  cpu time  522.4464: real time  522.6646

 eigenvalue-minimisations  :     0
 total energy-change (2. order) :-0.2657043E-02  (-0.2308990E-02)
 number of electron     242.0000021 magnetization       3.9999999
 augmentation part       18.0175621 magnetization       2.6679767

 DIPCOR: dipole corrections for dipol
 direction  3 min pos     1,
 dipolmoment           0.000000      0.000000      0.086927 electrons x Angstroem
 Tr[quadrupol]     -6536.481650

 energy correction for charged system         0.000000 eV
 dipol+quadrupol energy correction           -0.000216 eV
 added-field ion interaction          0.032471 eV  (added to PSCEN)


 Free energy of the ion-electron system (eV)
  ---------------------------------------------------
  alpha Z        PSCENC =       101.60035873
  Ewald energy   TEWEN  =     38101.96567012
  -Hartree energ DENC   =    -47454.09205822
  -exchange      EXHF   =       560.32621491
  -V(xc)+E(xc)   XCENC  =       644.99813111
  PAW double counting   =     26710.46853127   -26914.79341473
  entropy T*S    EENTRO =        -0.00000013
  eigenvalues    EBANDS =     -3215.19951895
  atomic energy  EATOM  =     10886.16394542
  ---------------------------------------------------
  free energy    TOTEN  =      -578.56214047 eV

  energy without entropy =     -578.56214034  energy(sigma->0) =     -578.56214041
  exchange ACFDT corr.  =        -0.00000004  see jH, gK, PRB 81, 115126


--------------------------------------------------------------------------------------------------------




--------------------------------------- Iteration      1(  17)  ---------------------------------------


    POTLOK:  cpu time    1.3050: real time    1.3055
    SETDIJ:  cpu time    2.0797: real time    2.0801
    TRIAL :  cpu time  516.5886: real time  516.8140
    CORREC:  cpu time    0.0015: real time    0.0018
    CHARGE:  cpu time    1.6397: real time    1.6402
    --------------------------------------------
      LOOP:  cpu time  521.6172: real time  521.8440

 eigenvalue-minimisations  :     0
 total energy-change (2. order) :-0.2188585E-02  (-0.1912046E-02)
 number of electron     242.0000021 magnetization       3.9999999
 augmentation part       18.0171160 magnetization       2.6705415

 DIPCOR: dipole corrections for dipol
 direction  3 min pos     1,
 dipolmoment           0.000000      0.000000      0.085868 electrons x Angstroem
 Tr[quadrupol]     -6536.479492

 energy correction for charged system         0.000000 eV
 dipol+quadrupol energy correction           -0.000211 eV
 added-field ion interaction          0.032075 eV  (added to PSCEN)


 Free energy of the ion-electron system (eV)
  ---------------------------------------------------
  alpha Z        PSCENC =       101.59996808
  Ewald energy   TEWEN  =     38101.96567012
  -Hartree energ DENC   =    -47454.03544615
  -exchange      EXHF   =       560.33833440
  -V(xc)+E(xc)   XCENC  =       645.00202357
  PAW double counting   =     26711.79693975   -26916.13846557
  entropy T*S    EENTRO =        -0.00000012
  eigenvalues    EBANDS =     -3215.25729855
  atomic energy  EATOM  =     10886.16394542
  ---------------------------------------------------
  free energy    TOTEN  =      -578.56432906 eV

  energy without entropy =     -578.56432894  energy(sigma->0) =     -578.56432900
  exchange ACFDT corr.  =        -0.00000003  see jH, gK, PRB 81, 115126


--------------------------------------------------------------------------------------------------------




--------------------------------------- Iteration      1(  18)  ---------------------------------------


    POTLOK:  cpu time    1.3040: real time    1.3046
    SETDIJ:  cpu time    2.0787: real time    2.0789
    TRIAL :  cpu time  517.2768: real time  517.4971
    CORREC:  cpu time    0.0015: real time    0.0018
    CHARGE:  cpu time    1.6372: real time    1.6378
    --------------------------------------------
      LOOP:  cpu time  522.3014: real time  522.5276

 eigenvalue-minimisations  :     0
 total energy-change (2. order) :-0.1818981E-02  (-0.1597201E-02)
 number of electron     242.0000021 magnetization       3.9999999
 augmentation part       18.0165731 magnetization       2.6728868

 DIPCOR: dipole corrections for dipol
 direction  3 min pos     1,
 dipolmoment           0.000000      0.000000      0.084882 electrons x Angstroem
 Tr[quadrupol]     -6536.477362

 energy correction for charged system         0.000000 eV
 dipol+quadrupol energy correction           -0.000206 eV
 added-field ion interaction          0.031707 eV  (added to PSCEN)


 Free energy of the ion-electron system (eV)
  ---------------------------------------------------
  alpha Z        PSCENC =       101.59960479
  Ewald energy   TEWEN  =     38101.96567012
  -Hartree energ DENC   =    -47453.98960369
  -exchange      EXHF   =       560.34942261
  -V(xc)+E(xc)   XCENC  =       645.00582579
  PAW double counting   =     26713.04302175   -26917.40625593
  entropy T*S    EENTRO =        -0.00000011
  eigenvalues    EBANDS =     -3215.29777878
  atomic energy  EATOM  =     10886.16394542
  ---------------------------------------------------
  free energy    TOTEN  =      -578.56614804 eV

  energy without entropy =     -578.56614792  energy(sigma->0) =     -578.56614798
  exchange ACFDT corr.  =        -0.00000003  see jH, gK, PRB 81, 115126


[...]
  Alpha Z   101.56810   101.56810   101.56810
  Ewald   46469.43218 46781.10844-55148.60068     2.22904    35.81287     0.49817
  Hartree 46399.87852 46543.28237-45490.59769     0.94107    47.22368     0.39125
  E(xc)    -722.03912  -722.19965  -736.60939    -0.00075    -0.11930    -0.00013
  Local  -95396.47924-95836.10307 97661.97175    -3.02980   -87.23302    -0.90233
  n-local  -120.33428  -116.05066  -108.25992     0.00927     0.02476     0.00376
  augment    47.49032    46.98365    52.39373    -0.01203     1.25034     0.00619
  Kinetic  3552.17659  3528.13770  4028.96606     0.08532     3.43416     0.00289
  Fock     -383.20761  -384.07600  -361.24995     0.01212    -0.54729    -0.00497
  -------------------------------------------------------------------------------------
  Total     -51.51453   -57.34911    -0.41799     0.23425    -0.15380    -0.00518
  in kB     -25.98002   -28.92254    -0.21080     0.11814    -0.07756    -0.00261
  external pressure =      -18.37 kB  Pullay stress =        0.00 kB


 VOLUME and BASIS-vectors are now :
 -----------------------------------------------------------------------------
  energy-cutoff  :      500.00
  volume of cell :     3176.88
      direct lattice vectors                 reciprocal lattice vectors
    12.810000000  0.000000000  0.000000000     0.078064012  0.000000000  0.000000000
     0.000000000 12.400000000  0.000000000     0.000000000  0.080645161  0.000000000
     0.000000000  0.000000000 20.000000000     0.000000000  0.000000000  0.050000000

  length of vectors
    12.810000000 12.400000000 20.000000000     0.078064012  0.080645161  0.050000000


 FORCES acting on ions:
    Electron-Ion                     Ewald-Force                    Non-Local-Force
 -----------------------------------------------------------------------------------------------
   0.571E+01 -.129E+01 -.640E+01   -.611E+01 0.130E+01 0.641E+01   0.422E+00 0.665E-02 -.567E-02
   0.115E+01 -.171E+01 -.429E+01   -.110E+01 0.163E+01 0.430E+01   0.171E-02 0.288E-01 -.308E-02
   0.507E+01 -.859E+00 -.356E+01   -.521E+01 0.865E+00 0.355E+01   0.881E-01 0.135E-01 0.884E-02
   0.111E+02 0.143E+01 -.866E+01   -.115E+02 -.169E+01 0.863E+01   0.334E+00 0.237E+00 0.291E-01
   0.117E+02 -.337E+01 -.788E+01   -.120E+02 0.359E+01 0.785E+01   0.350E+00 -.181E+00 0.315E-01
   0.246E+01 -.125E+01 -.349E+01   -.263E+01 0.111E+01 0.347E+01   0.192E+00 0.803E-01 0.468E-02
   0.137E+01 0.248E+00 -.591E+01   -.181E+01 -.905E-01 0.592E+01   0.339E+00 -.992E-01 -.153E-01
   0.306E+02 -.203E+02 -.977E+01   -.338E+02 0.208E+02 0.100E+02   0.353E+01 -.724E+00 -.255E+00
   0.161E+01 0.272E+02 -.814E+01   -.300E+01 -.288E+02 0.821E+01   0.134E+01 0.190E+01 -.812E-01
   0.839E+01 0.495E+00 -.145E+01   -.807E+01 -.476E+00 0.150E+01   -.118E+00 -.109E-01 -.451E-01
   0.126E+00 0.602E+01 -.262E+01   0.462E-01 -.645E+01 0.257E+01   -.194E+00 0.450E+00 0.386E-01
   0.750E+01 -.238E+02 -.927E+01   -.882E+01 0.254E+02 0.935E+01   0.131E+01 -.193E+01 -.725E-01
   0.329E+01 0.183E+01 0.399E+00   -.344E+01 -.169E+01 -.411E+00   0.195E+00 -.691E-01 0.213E-01
   0.140E+01 -.461E+01 -.307E+00   -.121E+01 0.503E+01 0.254E+00   -.243E+00 -.458E+00 0.552E-01
   0.446E+02 0.189E+02 -.133E+02   -.479E+02 -.194E+02 0.134E+02   0.346E+01 0.710E+00 -.590E-01
   0.161E+02 0.134E+01 -.686E+01   -.163E+02 -.161E+01 0.681E+01   0.361E+00 0.236E+00 0.423E-01
   0.146E+01 0.843E+00 -.257E+01   -.141E+01 -.798E+00 0.258E+01   0.278E-02 -.259E-01 -.655E-02
   0.294E+01 -.103E+01 -.240E+01   -.341E+01 0.877E+00 0.239E+01   0.326E+00 0.108E+00 0.149E-01
   0.136E+02 -.596E+01 -.931E+01   -.139E+02 0.616E+01 0.931E+01   0.309E+00 -.206E+00 0.312E-02
   -.435E+01 -.329E+01 -.187E+02   0.395E+01 0.327E+01 0.187E+02   0.336E+00 0.146E-01 -.316E-01
   0.439E+01 0.546E+01 -.163E+02   -.421E+01 -.605E+01 0.163E+02   -.882E-01 0.607E+00 -.143E-02
   0.440E+01 -.328E+01 -.188E+02   -.399E+01 0.326E+01 0.188E+02   -.331E+00 0.196E-01 -.329E-01
   -.439E+01 0.535E+01 -.163E+02   0.421E+01 -.595E+01 0.163E+02   0.912E-01 0.603E+00 -.458E-03
   0.111E+02 0.236E+02 -.224E+02   -.121E+02 -.265E+02 0.230E+02   0.123E+01 0.291E+01 -.536E+00
   -.112E+02 0.237E+02 -.224E+02   0.122E+02 -.266E+02 0.230E+02   -.124E+01 0.292E+01 -.536E+00
   0.914E+01 -.429E+02 -.283E+02   -.103E+02 0.457E+02 0.286E+02   0.137E+01 -.282E+01 -.300E+00
   0.603E+01 -.138E+02 -.174E+02   -.582E+01 0.143E+02 0.174E+02   -.160E+00 -.500E+00 0.115E-01
   -.879E+01 -.427E+02 -.284E+02   0.991E+01 0.455E+02 0.287E+02   -.135E+01 -.281E+01 -.297E+00
   -.594E+01 -.140E+02 -.173E+02   0.573E+01 0.145E+02 0.172E+02   0.159E+00 -.508E+00 0.127E-01
   -.511E+01 -.789E+00 -.370E+01   0.525E+01 0.795E+00 0.370E+01   -.886E-01 0.832E-02 0.715E-02
   -.112E+02 0.144E+01 -.872E+01   0.116E+02 -.171E+01 0.868E+01   -.332E+00 0.237E+00 0.282E-01
   -.572E+01 -.158E+01 -.651E+01   0.612E+01 0.160E+01 0.652E+01   -.422E+00 0.102E-01 -.853E-02
   -.112E+01 -.192E+01 -.433E+01   0.107E+01 0.185E+01 0.434E+01   -.259E-02 0.266E-01 -.232E-02
   -.130E+01 0.365E+00 -.596E+01   0.174E+01 -.212E+00 0.597E+01   -.333E+00 -.101E+00 -.152E-01
   -.305E+02 -.203E+02 -.985E+01   0.338E+02 0.208E+02 0.101E+02   -.351E+01 -.726E+00 -.252E+00
   -.116E+02 -.356E+01 -.792E+01   0.120E+02 0.378E+01 0.789E+01   -.342E+00 -.186E+00 0.322E-01
   -.241E+01 -.130E+01 -.352E+01   0.258E+01 0.117E+01 0.351E+01   -.186E+00 0.810E-01 0.398E-02
   -.769E-01 0.611E+01 -.263E+01   -.990E-01 -.654E+01 0.258E+01   0.203E+00 0.447E+00 0.390E-01
   -.152E+01 0.275E+02 -.822E+01   0.291E+01 -.291E+02 0.829E+01   -.133E+01 0.190E+01 -.812E-01
   -.848E+01 0.601E+00 -.140E+01   0.816E+01 -.580E+00 0.145E+01   0.114E+00 -.200E-02 -.448E-01
   -.166E+01 -.451E+01 -.149E+00   0.148E+01 0.492E+01 0.951E-01   0.233E+00 -.458E+00 0.571E-01
   -.449E+02 0.186E+02 -.131E+02   0.482E+02 -.192E+02 0.132E+02   -.348E+01 0.707E+00 -.600E-01
   -.786E+01 -.236E+02 -.913E+01   0.919E+01 0.253E+02 0.920E+01   -.133E+01 -.192E+01 -.702E-01
   -.347E+01 0.173E+01 0.466E+00   0.363E+01 -.159E+01 -.478E+00   -.195E+00 -.685E-01 0.220E-01
   -.315E+01 -.935E+00 -.239E+01   0.362E+01 0.780E+00 0.238E+01   -.331E+00 0.104E+00 0.135E-01
   -.136E+02 -.602E+01 -.921E+01   0.139E+02 0.622E+01 0.920E+01   -.309E+00 -.207E+00 0.503E-02
   -.162E+02 0.105E+01 -.672E+01   0.164E+02 -.132E+01 0.668E+01   -.369E+00 0.224E+00 0.431E-01
   -.159E+01 0.625E+00 -.265E+01   0.155E+01 -.575E+00 0.266E+01   -.272E-02 -.285E-01 -.816E-02
   -.104E+03 0.919E+01 -.293E+02   0.136E+03 -.925E+01 0.307E+02   -.300E+02 0.713E-01 -.130E+01
   -.715E+00 -.717E+02 -.276E+02   0.111E+02 0.915E+02 0.290E+02   -.101E+02 -.190E+02 -.122E+01
   0.849E+00 -.720E+02 -.278E+02   -.112E+02 0.919E+02 0.292E+02   0.102E+02 -.191E+02 -.123E+01
   0.316E+02 0.419E+02 -.494E+02   -.205E+02 -.621E+02 0.509E+02   -.105E+02 0.191E+02 -.141E+01
   -.317E+02 0.407E+02 -.491E+02   0.207E+02 -.608E+02 0.507E+02   0.104E+02 0.191E+02 -.140E+01
   0.104E+03 0.974E+01 -.295E+02   -.135E+03 -.976E+01 0.310E+02   0.300E+02 0.387E-01 -.131E+01
   0.222E+00 -.196E+02 0.372E+03   -.212E+00 0.245E+02 -.369E+03   0.523E-02 -.458E+01 -.349E+01
   0.103E+01 0.129E+03 0.268E+03   -.107E+01 -.140E+03 -.273E+03   0.263E-01 0.105E+02 0.452E+01
 -----------------------------------------------------------------------------------------------
   0.553E-02 -.751E+01 0.971E+01   -.490E-12 -.369E-12 -.171E-12   -.774E-02 0.669E+01 -.913E+01
 
 
 POSITION                                       TOTAL-FORCE (eV/Angst)
 -----------------------------------------------------------------------------------
      2.83829      0.00550     10.03630         0.038321      0.020701      0.002563
      0.70712      1.25405     10.02448         0.047001     -0.047722      0.006832
      1.40815      0.00468     10.02597        -0.043314      0.019846      0.006923
      3.54802      1.24861     10.03508        -0.009797     -0.011201     -0.001677
      2.86021      2.50750     10.01853         0.036474      0.030651      0.001907
      0.70900      3.73706     10.00964         0.034354     -0.054953     -0.008529
      1.42052      2.49980     10.02077        -0.086230      0.056345     -0.008250
      3.61220      3.73620      9.99045         0.449859     -0.228365     -0.015289
      2.88836      5.01838      9.99770         0.027094      0.403740     -0.006592
      0.71465      6.20496      9.99658         0.202912      0.007365     -0.000129
      1.43584      4.97108      9.99929        -0.035207      0.055922     -0.009798
      2.89358      7.38730     10.00757         0.063229     -0.410440      0.002128
      0.71063      8.67139     10.00000         0.058201      0.074364      0.011450
      1.44018      7.43754      9.99583        -0.065395     -0.067394      0.005845
      3.62077      8.67432     10.02248         0.365600      0.230374      0.009779
      2.86129      9.90211     10.02763         0.102130     -0.021362     -0.001324
      0.70786     11.15563     10.01994         0.047367      0.019302      0.002416
      1.42189      9.90913     10.01466        -0.125698     -0.041720      0.003603
      3.54893     11.16132     10.04503         0.014252     -0.018247     -0.002656
      7.10408      0.00773     10.07298        -0.057357     -0.001325     -0.010520
      4.97593      1.24282     10.04972         0.089559      0.046523     -0.002730
      5.68481      0.00725     10.07320         0.061237      0.002925     -0.011893
      7.81239      1.24353     10.04967        -0.085469      0.042744     -0.001875
      7.12332      2.49051     10.01420         0.340996      0.205722     -0.019824
      5.66464      2.48992     10.01399        -0.345743      0.202456     -0.018920
      7.12733      9.92246     10.06187         0.307713     -0.192876     -0.026110
      4.97641     11.16975     10.06731         0.041551     -0.038900     -0.012725
      5.66330      9.92183     10.06236        -0.313188     -0.196803     -0.026140
      7.81338     11.17056     10.06679        -0.046041     -0.041344     -0.011198
     11.38087      0.00519     10.02633         0.043651      0.016265      0.004984
      9.24025      1.24947     10.03531         0.012637     -0.012046     -0.002158
      9.95076      0.00625     10.03653        -0.038920      0.029840      0.000451
     12.08123      1.25445     10.02464        -0.050309     -0.045545      0.007176
     11.36711      2.50043     10.02099         0.090622      0.051095     -0.008360
      9.17478      3.73775      9.99095        -0.443743     -0.233596     -0.015389
      9.92724      2.50865     10.01883        -0.029847      0.029841      0.002098
     12.07864      3.73739     10.00976        -0.030909     -0.053708     -0.009133
     11.35217      4.97183      9.99935         0.039981      0.049739     -0.010550
      9.89940      5.01975      9.99800        -0.021158      0.407320     -0.007324
     12.07460      6.20504      9.99642        -0.206146      0.019373      0.000514
     11.35001      7.43820      9.99529         0.063116     -0.072455      0.007234
      9.17078      8.67589     10.02143        -0.371744      0.225502      0.011541
      9.89704      7.38870     10.00695        -0.068971     -0.409764      0.003532
     12.07950      8.67176      9.99974        -0.054029      0.076377      0.011704
     11.36835      9.90990     10.01446         0.126788     -0.048996      0.003054
      9.24085     11.16225     10.04457        -0.016642     -0.014892     -0.001729
      9.92931      9.90349     10.02695        -0.106576     -0.028157      0.000378
     12.08179     11.15606     10.02008        -0.042457      0.020946      0.000771
      3.56672      6.20117     10.01388        -0.946334      0.026444      0.025506
      4.99412      3.69461      9.95517        -0.670272     -0.886087      0.050089
      7.79273      3.69587      9.95597         0.666169     -0.880359      0.041879
      4.99617      8.72699     10.03191        -0.343532      0.598697      0.013295
      7.79565      8.72831     10.03055         0.333894      0.600175      0.016724
      9.22252      6.20346     10.01408         0.946343      0.019574      0.025427
      6.39066      4.97290      9.26670         0.014259      0.315686      0.015869
      6.40044      7.28970      9.57495        -0.010278      0.152398     -0.044847
 -----------------------------------------------------------------------------------
    total drift:                                0.000825     -0.020915     -0.016363


--------------------------------------------------------------------------------------------------------



  FREE ENERGIE OF THE ION-ELECTRON SYSTEM (eV)
  ---------------------------------------------------
  free  energy   TOTEN  =      -578.58068382 eV

  energy  without entropy=     -578.58068374  energy(sigma->0) =     -578.58068378
 


--------------------------------------------------------------------------------------------------------


    POTLOK:  cpu time    3.3720: real time    3.3721


--------------------------------------------------------------------------------------------------------


 stress matrix after NEB project (eV)
    -51.51453      0.23424     -0.00518
      0.23425    -57.34911     -0.15626
     -0.00527     -0.15380     -0.41799
  FORCES: max atom, RMS     1.112171    0.372083
  FORCE total and by dimension    2.784416    0.946343
  Stress total and by dimension   77.090857   57.349113
 writing wavefunctions
     LOOP+:  cpu time34036.7641: real time34050.6888
    4ORBIT:  cpu time    0.0000: real time    0.0000
 


 total charge     
 
# of ion       s       p       d       tot
------------------------------------------
    1        0.861   1.773   0.000   2.635
    2        0.863   1.756   0.000   2.618
    3        0.863   1.764   0.000   2.627
    4        0.867   1.753   0.000   2.620
    5        0.861   1.754   0.000   2.615
    6        0.861   1.764   0.000   2.625
    7        0.863   1.756   0.000   2.618
    8        0.851   1.703   0.000   2.554
    9        0.851   1.714   0.000   2.565
   10        0.864   1.747   0.000   2.612
   11        0.863   1.752   0.000   2.615
   12        0.850   1.709   0.000   2.559
   13        0.861   1.762   0.000   2.622
   14        0.862   1.750   0.000   2.613
   15        0.851   1.701   0.000   2.552
   16        0.861   1.752   0.000   2.613
   17        0.863   1.755   0.000   2.618
   18        0.863   1.755   0.000   2.618
   19        0.867   1.752   0.000   2.619
   20        0.864   1.788   0.000   2.652
   21        0.868   1.777   0.000   2.644
   22        0.864   1.788   0.000   2.652
   23        0.868   1.777   0.000   2.644
   24        0.858   1.731   0.000   2.588
   25        0.858   1.731   0.000   2.588
   26        0.859   1.735   0.000   2.594
   27        0.868   1.777   0.000   2.645
   28        0.859   1.735   0.000   2.593
   29        0.868   1.777   0.000   2.645
   30        0.863   1.764   0.000   2.627
   31        0.867   1.753   0.000   2.620
   32        0.861   1.773   0.000   2.635
   33        0.863   1.756   0.000   2.618
   34        0.863   1.755   0.000   2.618
   35        0.851   1.702   0.000   2.553
   36        0.861   1.754   0.000   2.615
   37        0.861   1.764   0.000   2.625
   38        0.863   1.752   0.000   2.615
   39        0.851   1.713   0.000   2.564
   40        0.864   1.747   0.000   2.612
   41        0.863   1.751   0.000   2.613
   42        0.851   1.702   0.000   2.553
   43        0.850   1.710   0.000   2.560
   44        0.861   1.762   0.000   2.623
   45        0.863   1.755   0.000   2.618
   46        0.867   1.752   0.000   2.619
   47        0.861   1.753   0.000   2.614
   48        0.863   1.755   0.000   2.618
   49        1.255   2.600   0.000   3.855
   50        1.233   2.663   0.000   3.896
   51        1.233   2.662   0.000   3.895
   52        1.233   2.659   0.000   3.892
   53        1.233   2.660   0.000   3.894
   54        1.255   2.600   0.000   3.855
   55        0.451   0.353   6.002   6.806
   56        0.631   0.372   9.812  10.814
--------------------------------------------------
tot         49.850 100.528  15.814 166.192
 


 magnetization (x)
 
# of ion       s       p       d       tot
------------------------------------------
    1       -0.000  -0.000   0.000  -0.000
    2        0.000  -0.000   0.000  -0.000
    3        0.000   0.000   0.000   0.000
    4        0.000   0.000   0.000   0.000
    5        0.000   0.002   0.000   0.002
    6        0.000   0.001   0.000   0.001
    7        0.000   0.000   0.000   0.001
    8        0.000   0.000   0.000   0.000
    9        0.000   0.004   0.000   0.004
   10        0.000   0.001   0.000   0.001
   11        0.000   0.000   0.000   0.000
   12        0.000   0.001   0.000   0.001
   13        0.000  -0.000   0.000  -0.000
   14        0.000  -0.000   0.000   0.000
   15        0.000   0.002   0.000   0.003
   16       -0.000  -0.001   0.000  -0.001
   17        0.000  -0.000   0.000   0.000
   18       -0.000  -0.000   0.000  -0.000
   19        0.000   0.002   0.000   0.002
   20        0.000   0.001   0.000   0.001
   21        0.000   0.000   0.000   0.000
   22        0.000   0.001   0.000   0.001
   23        0.000   0.000   0.000   0.000
   24        0.001   0.005   0.000   0.006
   25        0.001   0.005   0.000   0.006
   26       -0.000   0.000   0.000   0.000
   27       -0.000  -0.000   0.000  -0.000
   28       -0.000   0.000   0.000   0.000
   29       -0.000  -0.000   0.000  -0.000
   30        0.000   0.000   0.000   0.000
   31        0.000   0.000   0.000   0.000
   32       -0.000  -0.000   0.000  -0.000
   33        0.000  -0.000   0.000  -0.000
   34        0.000   0.000   0.000   0.000
   35        0.000   0.000   0.000   0.000
   36        0.000   0.002   0.000   0.002
   37        0.000   0.001   0.000   0.001
   38        0.000   0.000   0.000   0.000
   39        0.000   0.004   0.000   0.004
   40        0.000   0.001   0.000   0.001
   41        0.000  -0.000   0.000   0.000
   42        0.000   0.002   0.000   0.003
   43        0.000   0.001   0.000   0.001
   44        0.000  -0.000   0.000  -0.000
   45       -0.000  -0.000   0.000  -0.000
   46        0.000   0.002   0.000   0.002
   47       -0.000  -0.001   0.000  -0.001
   48        0.000   0.000   0.000   0.000
   49        0.003   0.007   0.000   0.010
   50        0.006   0.022   0.000   0.028
   51        0.006   0.022   0.000   0.028
   52       -0.000  -0.002   0.000  -0.002
   53       -0.000  -0.002   0.000  -0.002
   54        0.003   0.007   0.000   0.010
   55        0.048   0.056   3.468   3.572
   56       -0.016  -0.009   0.008  -0.017
--------------------------------------------------
tot          0.056   0.138   3.475   3.668
 

 total amount of memory used by VASP MPI-rank0   174435. kBytes
=======================================================================

   base      :      30000. kBytes
   nonl-proj :       5236. kBytes
   fftplans  :      13453. kBytes
   grid      :      34560. kBytes
   one-center:         62. kBytes
   HF        :         23. kBytes
   nonlr-proj:      14727. kBytes
   wavefun   :      76374. kBytes
 
  
  
 General timing and accounting informations for this job:
 ========================================================
  
                  Total CPU time used (sec):    34088.773
                            User time (sec):    34042.765
                          System time (sec):       46.009
                         Elapsed time (sec):    34104.236
  
                   Maximum memory used (kb):      413264.
                   Average memory used (kb):           0.
  
                          Minor page faults:       320851
                          Major page faults:            0
                 Voluntary context switches:         1372
