 vasp.5.4.4.18Apr17-6-g9f103f2a35 (build Feb 25 2019 10:51:38) complex          
  
 executed on             LinuxIFC date 2021.06.19  03:22:14
 running on   80 total cores
 distrk:  each k-point on   40 cores,    2 groups
 distr:  one band on NCORES_PER_BAND=  40 cores,    1 groups


--------------------------------------------------------------------------------------------------------


 INCAR:
 POTCAR:    PAW_PBE C 08Apr2002                   
 POTCAR:    PAW_PBE N 08Apr2002                   
 POTCAR:    PAW_PBE Fe 06Sep2000                  
 POTCAR:    PAW_PBE Ti 08Apr2002                  

 ----------------------------------------------------------------------------- 
|                                                                             |
|           W    W    AA    RRRRR   N    N  II  N    N   GGGG   !!!           |
|           W    W   A  A   R    R  NN   N  II  NN   N  G    G  !!!           |
|           W    W  A    A  R    R  N N  N  II  N N  N  G       !!!           |
|           W WW W  AAAAAA  RRRRR   N  N N  II  N  N N  G  GGG   !            |
|           WW  WW  A    A  R   R   N   NN  II  N   NN  G    G                |
|           W    W  A    A  R    R  N    N  II  N    N   GGGG   !!!           |
|                                                                             |
|      For optimal performance we recommend to set                            |
|        NCORE= 4 - approx SQRT( number of cores)                             |
|      NCORE specifies how many cores store one orbital (NPAR=cpu/NCORE).     |
|      This setting can  greatly improve the performance of VASP for DFT.     |
|      The default,   NCORE=1            might be grossly inefficient         |
|      on modern multi-core architectures or massively parallel machines.     |
|      Do your own testing !!!!                                               |
|      Unfortunately you need to use the default for GW and RPA calculations. |
|      (for HF NCORE is supported but not extensively tested yet)             |
|                                                                             |
 ----------------------------------------------------------------------------- 


 ----------------------------------------------------------------------------- 
|                                                                             |
|           W    W    AA    RRRRR   N    N  II  N    N   GGGG   !!!           |
|           W    W   A  A   R    R  NN   N  II  NN   N  G    G  !!!           |
|           W    W  A    A  R    R  N N  N  II  N N  N  G       !!!           |
|           W WW W  AAAAAA  RRRRR   N  N N  II  N  N N  G  GGG   !            |
|           WW  WW  A    A  R   R   N   NN  II  N   NN  G    G                |
|           W    W  A    A  R    R  N    N  II  N    N   GGGG   !!!           |
|                                                                             |
|      You have enabled k-point parallelism (KPAR>1).                         |
|      This developmental code was originally  written by Paul Kent at ORNL,  |
|      and carefully double checked in Vienna.                                |
|      GW as well as linear response parallelism added by Martijn Marsman     |
|      and Georg Kresse.                                                      |
|      Carefully verify results versus KPAR=1.                                |
|      Report problems to Paul Kent and Vienna.                               |
|                                                                             |
 ----------------------------------------------------------------------------- 

 POTCAR:    PAW_PBE C 08Apr2002                   
   VRHFIN =C: s2p2                                                              
   LEXCH  = PE                                                                  
   EATOM  =   147.1560 eV,   10.8157 Ry                                         
                                                                                
   TITEL  = PAW_PBE C 08Apr2002                                                 
   LULTRA =        F    use ultrasoft PP ?                                      
   IUNSCR =        1    unscreen: 0-lin 1-nonlin 2-no                           
   RPACOR =    1.200    partial core radius                                     
   POMASS =   12.011; ZVAL   =    4.000    mass and valenz                      
   RCORE  =    1.500    outmost cutoff radius                                   
   RWIGS  =    1.630; RWIGS  =    0.863    wigner-seitz radius (au A)           
   ENMAX  =  400.000; ENMIN  =  300.000 eV                                      
   ICORE  =        2    local potential                                         
   LCOR   =        T    correct aug charges                                     
   LPAW   =        T    paw PP                                                  
   EAUG   =  644.873                                                            
   DEXC   =    0.000                                                            
   RMAX   =    1.529    core radius for proj-oper                               
   RAUG   =    1.300    factor for augmentation sphere                          
   RDEP   =    1.501    radius for radial grids                                 
   RDEPT  =    1.300    core radius for aug-charge                              
                                                                                
   Atomic configuration                                                         
    4 entries                                                                   
     n  l   j            E        occ.                                          
     1  0  0.50      -273.3789   2.0000                                         
     2  0  0.50       -13.7508   2.0000                                         
     2  1  0.50        -5.2854   2.0000                                         
     3  2  1.50        -5.4423   0.0000                                         
   Description                                                                  
     l       E           TYP  RCUT    TYP  RCUT                                 
     0    -13.7508458     23  1.200                                             
     0     -8.2022199     23  1.200                                             
     1     -5.2854383     23  1.500                                             
     1     34.0145650     23  1.500                                             
     2     -5.4423304      7  1.500                                             
  local pseudopotential read in
  partial core-charges read in
  partial kinetic energy density read in
  atomic valenz-charges read in
  non local Contribution for L=           0  read in
    real space projection operators read in
  non local Contribution for L=           0  read in
    real space projection operators read in
  non local Contribution for L=           1  read in
    real space projection operators read in
  non local Contribution for L=           1  read in
    real space projection operators read in
    PAW grid and wavefunctions read in
 
   number of l-projection  operators is LMAX  =           4
   number of lm-projection operators is LMMAX =           8
 
 POTCAR:    PAW_PBE N 08Apr2002                   
   VRHFIN =N: s2p3                                                              
   LEXCH  = PE                                                                  
   EATOM  =   264.5486 eV,   19.4438 Ry                                         
                                                                                
   TITEL  = PAW_PBE N 08Apr2002                                                 
   LULTRA =        F    use ultrasoft PP ?                                      
   IUNSCR =        1    unscreen: 0-lin 1-nonlin 2-no                           
   RPACOR =    1.200    partial core radius                                     
   POMASS =   14.001; ZVAL   =    5.000    mass and valenz                      
   RCORE  =    1.500    outmost cutoff radius                                   
   RWIGS  =    1.400; RWIGS  =    0.741    wigner-seitz radius (au A)           
   ENMAX  =  400.000; ENMIN  =  300.000 eV                                      
   ICORE  =        2    local potential                                         
   LCOR   =        T    correct aug charges                                     
   LPAW   =        T    paw PP                                                  
   EAUG   =  627.112                                                            
   DEXC   =    0.000                                                            
   RMAX   =    1.529    core radius for proj-oper                               
   RAUG   =    1.300    factor for augmentation sphere                          
   RDEP   =    1.514    radius for radial grids                                 
   RDEPT  =    1.338    core radius for aug-charge                              
                                                                                
   Atomic configuration                                                         
    4 entries                                                                   
     n  l   j            E        occ.                                          
     1  0  0.50      -384.7179   2.0000                                         
     2  0  0.50       -18.5828   2.0000                                         
     2  1  0.50        -7.0898   3.0000                                         
     3  2  1.50        -6.8029   0.0000                                         
   Description                                                                  
     l       E           TYP  RCUT    TYP  RCUT                                 
     0    -18.5828119     23  1.200                                             
     0    -13.5018863     23  1.200                                             
     1     -7.0897853     23  1.500                                             
     1      9.5240782     23  1.500                                             
     2     -6.8029130      7  1.500                                             
  local pseudopotential read in
  partial core-charges read in
  partial kinetic energy density read in
  atomic valenz-charges read in
  non local Contribution for L=           0  read in
    real space projection operators read in
  non local Contribution for L=           0  read in
    real space projection operators read in
  non local Contribution for L=           1  read in
    real space projection operators read in
  non local Contribution for L=           1  read in
    real space projection operators read in
    PAW grid and wavefunctions read in
 
   number of l-projection  operators is LMAX  =           4
   number of lm-projection operators is LMMAX =           8
 
 POTCAR:    PAW_PBE Fe 06Sep2000                  
   VRHFIN =Fe:  d7 s1                                                           
   LEXCH  = PE                                                                  
   EATOM  =   594.3153 eV,   43.6809 Ry                                         
                                                                                
   TITEL  = PAW_PBE Fe 06Sep2000                                                
   LULTRA =        F    use ultrasoft PP ?                                      
   IUNSCR =        1    unscreen: 0-lin 1-nonlin 2-no                           
   RPACOR =    2.000    partial core radius                                     
   POMASS =   55.847; ZVAL   =    8.000    mass and valenz                      
   RCORE  =    2.300    outmost cutoff radius                                   
   RWIGS  =    2.460; RWIGS  =    1.302    wigner-seitz radius (au A)           
   ENMAX  =  267.882; ENMIN  =  200.911 eV                                      
   RCLOC  =    1.701    cutoff for local pot                                    
   LCOR   =        T    correct aug charges                                     
   LPAW   =        T    paw PP                                                  
   EAUG   =  511.368                                                            
   DEXC   =    0.000                                                            
   RMAX   =    2.356    core radius for proj-oper                               
   RAUG   =    1.300    factor for augmentation sphere                          
   RDEP   =    2.442    radius for radial grids                                 
   RDEPT  =    1.890    core radius for aug-charge                              
                                                                                
   Atomic configuration                                                         
    9 entries                                                                   
     n  l   j            E        occ.                                          
     1  0  0.50     -6993.8440   2.0000                                         
     2  0  0.50      -814.6047   2.0000                                         
     2  1  1.50      -693.3689   6.0000                                         
     3  0  0.50       -89.4732   2.0000                                         
     3  1  1.50       -55.6373   6.0000                                         
     3  2  2.50        -3.8151   7.0000                                         
     4  0  0.50        -4.2551   1.0000                                         
     4  1  1.50        -3.4015   0.0000                                         
     4  3  2.50        -1.3606   0.0000                                         
   Description                                                                  
     l       E           TYP  RCUT    TYP  RCUT                                 
     2     -3.8151135     23  2.300                                             
     2     -5.1756961     23  2.300                                             
     0     -4.2550963     23  2.300                                             
     0      7.2035603     23  2.300                                             
     1     -2.7211652     23  2.300                                             
     1     18.4316424     23  2.300                                             
  local pseudopotential read in
  partial core-charges read in
  partial kinetic energy density read in
  atomic valenz-charges read in
  non local Contribution for L=           2  read in
    real space projection operators read in
  non local Contribution for L=           2  read in
    real space projection operators read in
  non local Contribution for L=           0  read in
    real space projection operators read in
  non local Contribution for L=           0  read in
    real space projection operators read in
  non local Contribution for L=           1  read in
    real space projection operators read in
  non local Contribution for L=           1  read in
    real space projection operators read in
    PAW grid and wavefunctions read in
 
   number of l-projection  operators is LMAX  =           6
   number of lm-projection operators is LMMAX =          18
 
 POTCAR:    PAW_PBE Ti 08Apr2002                  
   VRHFIN =Ti: d3 s1                                                            
   LEXCH  = PE                                                                  
   EATOM  =    94.7928 eV,    6.9671 Ry                                         
                                                                                
   TITEL  = PAW_PBE Ti 08Apr2002                                                
   LULTRA =        F    use ultrasoft PP ?                                      
   IUNSCR =        1    unscreen: 0-lin 1-nonlin 2-no                           
   RPACOR =    2.200    partial core radius                                     
   POMASS =   47.880; ZVAL   =    4.000    mass and valenz                      
   RCORE  =    2.800    outmost cutoff radius                                   
   RWIGS  =    2.500; RWIGS  =    1.323    wigner-seitz radius (au A)           
   ENMAX  =  178.330; ENMIN  =  133.747 eV                                      
   RCLOC  =    2.215    cutoff for local pot                                    
   LCOR   =        T    correct aug charges                                     
   LPAW   =        T    paw PP                                                  
   EAUG   =  328.883                                                            
   DEXC   =    0.000                                                            
   RMAX   =    2.868    core radius for proj-oper                               
   RAUG   =    1.300    factor for augmentation sphere                          
   RDEP   =    2.885    radius for radial grids                                 
   RDEPT  =    2.320    core radius for aug-charge                              
                                                                                
   Atomic configuration                                                         
    9 entries                                                                   
     n  l   j            E        occ.                                          
     1  0  0.50     -4865.3608   2.0000                                         
     2  0  0.50      -533.1367   2.0000                                         
     2  1  1.50      -440.5031   6.0000                                         
     3  0  0.50       -59.3186   2.0000                                         
     3  1  1.50       -35.7012   6.0000                                         
     3  2  2.50        -1.9157   3.0000                                         
     4  0  0.50        -3.7291   1.0000                                         
     4  1  1.50        -4.0817   0.0000                                         
     4  3  2.50        -1.3606   0.0000                                         
   Description                                                                  
     l       E           TYP  RCUT    TYP  RCUT                                 
     2     -1.9156924     23  2.800                                             
     2     -0.4062961     23  2.800                                             
     0     -3.7290832     23  2.800                                             
     0     20.4087390     23  2.800                                             
     1     -5.4423304     23  2.800                                             
  local pseudopotential read in
  partial core-charges read in
  partial kinetic energy density read in
  atomic valenz-charges read in
  non local Contribution for L=           2  read in
    real space projection operators read in
  non local Contribution for L=           2  read in
    real space projection operators read in
  non local Contribution for L=           0  read in
    real space projection operators read in
  non local Contribution for L=           0  read in
    real space projection operators read in
  non local Contribution for L=           1  read in
    real space projection operators read in
    PAW grid and wavefunctions read in
 
   number of l-projection  operators is LMAX  =           5
   number of lm-projection operators is LMMAX =          15
 

 ----------------------------------------------------------------------------- 
|                                                                             |
|  ADVICE TO THIS USER RUNNING 'VASP/VAMP'   (HEAR YOUR MASTER'S VOICE ...):  |
|                                                                             |
|      You have a (more or less) 'large supercell' and for larger cells       |
|      it might be more efficient to use real space projection opertators     |
|      So try LREAL= Auto  in the INCAR   file.                               |
|      Mind:          For very  accurate calculation you might also keep the  |
|      reciprocal projection scheme          (i.e. LREAL=.FALSE.)             |
|                                                                             |
 ----------------------------------------------------------------------------- 

  PAW_PBE C 08Apr2002                   :
 energy of atom  1       EATOM= -147.1560
 kinetic energy error for atom=    0.0076 (will be added to EATOM!!)
  PAW_PBE N 08Apr2002                   :
 energy of atom  2       EATOM= -264.5486
 kinetic energy error for atom=    0.0138 (will be added to EATOM!!)
  PAW_PBE Fe 06Sep2000                  :
 energy of atom  3       EATOM= -594.3153
 kinetic energy error for atom=    0.0026 (will be added to EATOM!!)
  PAW_PBE Ti 08Apr2002                  :
 energy of atom  4       EATOM=  -94.7928
 kinetic energy error for atom=    0.0002 (will be added to EATOM!!)
 
 
 POSCAR:  C  N Fe Ti                             
  positions in cartesian coordinates
  No initial velocities read in
 exchange correlation table for  LEXCH =        8
   RHO(1)=    0.500       N(1)  =     2000
   RHO(2)=  100.500       N(2)  =     4000

 VTST: version 3.2, (02/03/18)

 CHAIN: initializing optimizer
 
 OPT: Using VASP Conjugate-Gradient optimizer
 CHAIN: Read ICHAIN            0
 
 POSCAR:  C  N Fe Ti                             
  positions in cartesian coordinates
  No initial velocities read in
 


--------------------------------------------------------------------------------------------------------


 ion  position               nearest neighbor table
   1  0.221  1.000  0.504-   3 1.42  20 1.42   4 1.43
   2  0.055  0.101  0.505-  34 1.43   3 1.43   7 1.44
   3  0.110  1.000  0.504-   1 1.42  18 1.43   2 1.43
   4  0.277  0.099  0.505-  22 1.42   5 1.42   1 1.43
   5  0.224  0.200  0.504-   4 1.42   7 1.43   8 1.44
   6  0.056  0.301  0.504-   7 1.43  38 1.44  11 1.44
   7  0.111  0.201  0.504-   6 1.43   5 1.43   2 1.44
   8  0.284  0.298  0.502-  51 1.39   5 1.44   9 1.45
   9  0.226  0.399  0.500-  11 1.44  12 1.44   8 1.45
  10  0.056  0.500  0.501-  11 1.44  15 1.45  42 1.45
  11  0.113  0.400  0.502-   6 1.44   9 1.44  10 1.44
  12  0.282  0.499  0.494-  53 1.34   9 1.44  13 1.46
  13  0.227  0.601  0.496-  15 1.44  16 1.45  12 1.46
  14  0.056  0.699  0.501-  19 1.43  46 1.44  15 1.44
  15  0.113  0.600  0.499-  14 1.44  13 1.44  10 1.45
  16  0.283  0.702  0.496-  55 1.39  17 1.44  13 1.45
  17  0.223  0.800  0.501-  20 1.43  19 1.43  16 1.44
  18  0.055  0.899  0.503-  50 1.42   3 1.43  19 1.44
  19  0.111  0.799  0.502-  17 1.43  14 1.43  18 1.44
  20  0.277  0.901  0.503-  28 1.42   1 1.42  17 1.43
  21  0.555  0.000  0.506-  23 1.41  30 1.42  24 1.42
  22  0.388  0.099  0.506-  26 1.41   4 1.42  23 1.42
  23  0.444  0.000  0.506-  21 1.41  28 1.42  22 1.42
  24  0.610  0.099  0.506-  25 1.41  32 1.42  21 1.42
  25  0.555  0.197  0.505-  52 1.38  24 1.41  26 1.43
  26  0.443  0.197  0.505-  51 1.38  22 1.41  25 1.43
  27  0.556  0.804  0.497-  56 1.38  30 1.41  29 1.43
  28  0.388  0.902  0.503-  29 1.41  23 1.42  20 1.42
  29  0.443  0.804  0.497-  55 1.38  28 1.41  27 1.43
  30  0.610  0.902  0.503-  27 1.41  21 1.42  48 1.42
  31  0.889  1.000  0.504-  33 1.42  50 1.43  34 1.43
  32  0.722  0.099  0.505-  24 1.42  37 1.42  33 1.43
  33  0.777  1.000  0.504-  31 1.42  48 1.42  32 1.43
  34  0.943  0.101  0.505-   2 1.43  31 1.43  35 1.44
  35  0.887  0.201  0.504-  38 1.43  37 1.43  34 1.44
  36  0.715  0.298  0.502-  52 1.39  37 1.44  41 1.45
  37  0.774  0.200  0.504-  32 1.42  35 1.43  36 1.44
  38  0.943  0.301  0.504-  35 1.43   6 1.44  39 1.44
  39  0.885  0.400  0.502-  38 1.44  41 1.44  42 1.44
  40  0.716  0.499  0.494-  54 1.34  41 1.44  45 1.46
  41  0.772  0.399  0.500-  39 1.44  40 1.44  36 1.45
  42  0.942  0.500  0.501-  39 1.44  43 1.45  10 1.45
  43  0.885  0.600  0.499-  46 1.44  45 1.44  42 1.45
  44  0.716  0.702  0.496-  56 1.39  49 1.44  45 1.45
  45  0.772  0.601  0.496-  43 1.44  44 1.45  40 1.46
  46  0.943  0.699  0.501-  47 1.43  14 1.44  43 1.44
  47  0.887  0.799  0.502-  49 1.43  46 1.43  50 1.44
  48  0.722  0.901  0.503-  30 1.42  33 1.42  49 1.43
  49  0.775  0.800  0.501-  48 1.43  47 1.43  44 1.44
  50  0.943  0.899  0.503-  18 1.42  31 1.43  47 1.44
  51  0.393  0.295  0.502-  26 1.38   8 1.39  57 1.94
  52  0.605  0.295  0.502-  25 1.38  36 1.39  57 1.93
  53  0.386  0.498  0.484-  12 1.34  57 1.85  58 1.88
  54  0.612  0.498  0.484-  40 1.34  57 1.85  58 1.88
  55  0.392  0.707  0.490-  29 1.38  16 1.39  58 2.09
  56  0.607  0.707  0.490-  27 1.38  44 1.39  58 2.09
  57  0.499  0.405  0.490-  54 1.85  53 1.85  52 1.93  51 1.94  58 2.37
  58  0.499  0.589  0.462-  54 1.88  53 1.88  56 2.09  55 2.09  57 2.37
 
  LATTYP: Found a simple monoclinic cell.
 ALAT       =    23.5931682547
 B/A-ratio  =     0.5392408456
 C/A-ratio  =     1.7774899299
 COS(beta)  =    -0.9676284359
  
  Lattice vectors:
  
 A1 = (  -0.0000485228,  12.4939061914, -20.0134928578)
 A2 = ( -12.7224000000,   0.0000000000,   0.0000000000)
 A3 = (   0.0002930338, -12.5108123844,  40.0269857157)


Analysis of symmetry for initial positions (statically):
=====================================================================
 Subroutine PRICEL returns:
 Original cell was already a primitive cell.
 

 Routine SETGRP: Setting up the symmetry group for a 
 simple monoclinic supercell.


 Subroutine GETGRP returns: Found  1 space group operations
 (whereof  1 operations were pure point group operations)
 out of a pool of  4 trial point group operations.


The static configuration has the point symmetry C_1 .


Analysis of symmetry for dynamics (positions and initial velocities):
=====================================================================
 Subroutine PRICEL returns:
 Original cell was already a primitive cell.
 

 Routine SETGRP: Setting up the symmetry group for a 
 simple monoclinic supercell.


 Subroutine GETGRP returns: Found  1 space group operations
 (whereof  1 operations were pure point group operations)
 out of a pool of  4 trial point group operations.


The dynamic configuration has the point symmetry C_1 .


Analysis of structural, dynamic, and magnetic symmetry:
=====================================================================
 Subroutine PRICEL returns:
 Original cell was already a primitive cell.
 

 Routine SETGRP: Setting up the symmetry group for a 
 simple monoclinic supercell.


 Subroutine GETGRP returns: Found  1 space group operations
 (whereof  1 operations were pure point group operations)
 out of a pool of  4 trial point group operations.


The magnetic configuration has the point symmetry C_1 .


 Subroutine INISYM returns: Found  1 space group operations
 (whereof  1 operations are pure point group operations),
 and found     1 'primitive' translations

 
 
 KPOINTS: KPOINTS created by Atomic Simulation Env

Automatic generation of k-mesh.
Space group operators:
 irot       det(A)        alpha          n_x          n_y          n_z        tau_x        tau_y        tau_z
    1     1.000000     0.000000     1.000000     0.000000     0.000000     0.000000     0.000000     0.000000
 
 Subroutine IBZKPT returns following result:
 ===========================================
 
 Found      2 irreducible k-points:
 
 Following reciprocal coordinates:
            Coordinates               Weight
  0.250000  0.250000  0.000000      2.000000
 -0.250000  0.250000  0.000000      2.000000
 
 Following cartesian coordinates:
            Coordinates               Weight
  0.019650  0.020037  0.000017      2.000000
 -0.019650  0.020037  0.000017      2.000000
 
 
 Subroutine IBZKPT_HF returns following result:
 ==============================================
 
 Found      4 k-points in 1st BZ
 the following      4 k-points will be used (e.g. in the exchange kernel)
 Following reciprocal coordinates:   # in IRBZ
  0.250000  0.250000  0.000000    0.25000000   1 t-inv F
 -0.250000  0.250000  0.000000    0.25000000   2 t-inv F
 -0.250000 -0.250000  0.000000    0.25000000   1 t-inv T
  0.250000 -0.250000 -0.000000    0.25000000   2 t-inv T


--------------------------------------------------------------------------------------------------------




 Dimension of arrays:
   k-points           NKPTS =      2   k-points in BZ     NKDIM =      4   number of bands    NBANDS=    155
   number of dos      NEDOS =    301   number of ions     NIONS =     58
   non local maximal  LDIM  =      6   non local SUM 2l+1 LMDIM =     18
   total plane-waves  NPLWV = ******
   max r-space proj   IRMAX =      1   max aug-charges    IRDMAX=  30249
   dimension x,y,z NGX =    96 NGY =   96 NGZ =  150
   dimension x,y,z NGXF=   192 NGYF=  192 NGZF=  300
   support grid    NGXF=   192 NGYF=  192 NGZF=  300
   ions per type =              50   6   1   1
   NGX,Y,Z   is equivalent  to a cutoff of  12.54, 12.79, 12.46 a.u.
   NGXF,Y,Z  is equivalent  to a cutoff of  25.09, 25.58, 24.92 a.u.

 SYSTEM =  unknown system                          
 POSCAR =   C  N Fe Ti                             

 Startparameter for this run:
   NWRITE =      2    write-flag & timer
   PREC   = accura    normal or accurate (medium, high low for compatibility)
   ISTART =      1    job   : 0-new  1-cont  2-samecut
   ICHARG =      0    charge: 1-file 2-atom 10-const
   ISPIN  =      2    spin polarized calculation?
   LNONCOLLINEAR =      F non collinear calculations
   LSORBIT =      F    spin-orbit coupling
   INIWAV =      1    electr: 0-lowe 1-rand  2-diag
   LASPH  =      T    aspherical Exc in radial PAW
   METAGGA=      F    non-selfconsistent MetaGGA calc.

 Electronic Relaxation 1
   ENCUT  =  500.0 eV  36.75 Ry    6.06 a.u.  23.20 22.75 36.49*2*pi/ulx,y,z
   ENINI  =  500.0     initial cutoff
   ENAUG  =  644.9 eV  augmentation charge cutoff
   NELM   =    250;   NELMIN=  2; NELMDL=  0     # of ELM steps 
   EDIFF  = 0.1E-03   stopping-criterion for ELM
   LREAL  =      F    real-space projection
   NLSPLINE    = F    spline interpolate recip. space projectors
   LCOMPAT=      F    compatible to vasp.4.4
   GGA_COMPAT  = T    GGA compatible to vasp.4.4-vasp.4.6
   LMAXPAW     = -100 max onsite density
   LMAXMIX     =    2 max onsite mixed and CHGCAR
   VOSKOWN=      0    Vosko Wilk Nusair interpolation
   ROPT   =    0.00000   0.00000   0.00000   0.00000
 Ionic relaxation
   EDIFFG = -.3E-01   stopping-criterion for IOM
   NSW    =      0    number of steps for IOM
   NBLOCK =      1;   KBLOCK =      1    inner block; outer block 
   IBRION =     -1    ionic relax: 0-MD 1-quasi-New 2-CG
   NFREE  =      1    steps in history (QN), initial steepest desc. (CG)
   ISIF   =      2    stress and relaxation
   IWAVPR =     10    prediction:  0-non 1-charg 2-wave 3-comb
   ISYM   =      3    0-nonsym 1-usesym 2-fastsym
   LCORR  =      T    Harris-Foulkes like correction to forces

   POTIM  = 0.5000    time-step for ionic-motion
   TEIN   =    0.0    initial temperature
   TEBEG  =    0.0;   TEEND  =   0.0 temperature during run
   SMASS  =  -3.00    Nose mass-parameter (am)
   estimated Nose-frequenzy (Omega)   =  0.10E-29 period in steps =****** mass=  -0.370E-26a.u.
   SCALEE = 1.0000    scale energy and forces
   NPACO  =    256;   APACO  = 16.0  distance and # of slots for P.C.
   PSTRESS=    0.0 pullay stress

  Mass of Ions in am
   POMASS =  12.01 14.00 55.85 47.88
  Ionic Valenz
   ZVAL   =   4.00  5.00  8.00  4.00
  Atomic Wigner-Seitz radii
   RWIGS  =  -1.00 -1.00 -1.00 -1.00
  virtual crystal weights 
   VCA    =   1.00  1.00  1.00  1.00
   NELECT =     242.0000    total number of electrons
   NUPDOWN=      -1.0000    fix difference up-down

 DOS related values:
   EMIN   =  10.00;   EMAX   =-10.00  energy-range for DOS
   EFERMI =   0.00
   ISMEAR =     0;   SIGMA  =   0.10  broadening in eV -4-tet -1-fermi 0-gaus

 Electronic relaxation 2 (details)
   IALGO  =     53    algorithm
   LDIAG  =      T    sub-space diagonalisation (order eigenvalues)
   LSUBROT=      F    optimize rotation matrix (better conditioning)
   TURBO    =      0    0=normal 1=particle mesh
   IRESTART =      0    0=no restart 2=restart with 2 vectors
   NREBOOT  =      0    no. of reboots
   NMIN     =      0    reboot dimension
   EREF     =   0.00    reference energy to select bands
   IMIX   =      4    mixing-type and parameters
     AMIX     =   0.40;   BMIX     =  1.00
     AMIX_MAG =   1.60;   BMIX_MAG =  1.00
     AMIN     =   0.10
     WC   =   100.;   INIMIX=   1;  MIXPRE=   1;  MAXMIX= -45

 Intra band minimization:
   WEIMIN = 0.0000     energy-eigenvalue tresh-hold
   EBREAK =  0.16E-06  absolut break condition
   DEPER  =   0.30     relativ break condition  

   TIME   =   0.20     timestep for ELM

  volume/ion in A,a.u.               =      54.77       369.63
  Fermi-wavevector in a.u.,A,eV,Ry     =   0.693978  1.311429  6.552647  0.481606
  Thomas-Fermi vector in A             =   1.776343
 
 Write flags
   LWAVE        =      T    write WAVECAR
   LDOWNSAMPLE  =      F    k-point downsampling of WAVECAR
   LCHARG       =      T    write CHGCAR
   LVTOT        =      F    write LOCPOT, total local potential
   LVHAR        =      F    write LOCPOT, Hartree potential only
   LELF         =      F    write electronic localiz. function (ELF)
   LORBIT       =     11    0 simple, 1 ext, 2 COOP (PROOUT), +10 PAW based schemes


 Dipole corrections
   LMONO  =      F    monopole corrections only (constant potential shift)
   LDIPOL =      T    correct potential (dipole corrections)
   IDIPOL =      3    1-x, 2-y, 3-z, 4-all directions 
   EPSILON=  1.0000000 bulk dielectric constant

 Exchange correlation treatment:
   GGA     =    PE    GGA type
   LEXCH   =     8    internal setting for exchange type
   VOSKOWN=      0    Vosko Wilk Nusair interpolation
   EXXOEP  =     0    0=HF, 1=EXX-LHF (local Hartree Fock) 2=EXX OEP
   LHFCALC =     T    Hartree Fock is set to
   LSYMGRAD=     F    symmetrize gradient (conserves proper symmetry)
   PRECFOCK=normal    Normal, Fast or Accurate (Low or Medium for compatibility)
   LRHFCALC=     F    long range Hartree Fock
   LRSCOR  =     F    long range correlation only (use DFT for short range part)
   LTHOMAS =     F    Thomas Fermi screening in HF
   LMODELHF=     F    short range full HF, long range fraction AEXX
   ENCUT4O =  -1.0   cutoff for four orbital integrals eV
   LMAXFOCK=     4    L truncation for augmentation on plane wave grid
   LMAXFOCKAE=  -1    L truncation for all-electron charge restoration on plane wave grid
   NMAXFOCKAE=   1    number of basis functions for all-electron charge restoration
   LFOCKAEDFT=     F  apply the AE augmentation even for DFT
   NKREDX  =     1    reduce k-point grid by
   NKREDY  =     1    reduce k-point grid by
   NKREDZ  =     1    reduce k-point grid by
   SHIFTRED=     F    shift reduced grid of Gamma
   HFKIDENT=     F    idential grid for each k-point
   ODDONLY =     F    use only odd q-grid points
   EVENONLY=     F    use only even q-grid points
   HFALPHA =   -1.0000 decay constant for conv. correction
   MCALPHA =    0.0000 extent of test-charge in conv. correction in multipole expansion
   AEXX    =    0.2500 exact exchange contribution
   HFSCREEN=    0.2000 screening length (either q_TF or 0.3 A-1)
   HFSCREENC=   0.2000 screening length for correlation (either q_TF or 0.3 A-1)
   HFRCUT  =    0.0000 spherical cutoff for potential kernel
   ALDAX   =    0.7500 LDA exchange part
   AGGAX   =    0.7500 GGA exchange part
   ALDAC   =    1.0000 LDA correlation
   AGGAC   =    1.0000 GGA correlation
   ENCUTFOCK=  -1.0 apply spherical cutoff to Coloumb kernel
   NBANDSGWLOW=     1    first orbital included in HF term
   NBLOCK_FOCK=    64    blocking factor in FOCK_ACC
 Linear response parameters
   LEPSILON=     F    determine dielectric tensor
   LRPA    =     F    only Hartree local field effects (RPA)
   LNABLA  =     F    use nabla operator in PAW spheres
   LVEL    =     F    velocity operator in full k-point grid
   LINTERFAST=   F  fast interpolation
   KINTER  =     0    interpolate to denser k-point grid
   CSHIFT  =0.1000    complex shift for real part using Kramers Kronig
   OMEGAMAX=  -1.0    maximum frequency
   DEG_THRESHOLD= 0.2000000E-02 threshold for treating states as degnerate
   RTIME   =   -0.100 relaxation time in fs
  (WPLASMAI=    0.000 imaginary part of plasma frequency in eV, 0.658/RTIME)
   DFIELD  = 0.0000000 0.0000000 0.0000000 field for delta impulse in time
 
 Orbital magnetization related:
   ORBITALMAG=     F  switch on orbital magnetization
   LCHIMAG   =     F  perturbation theory with respect to B field
   DQ        =  0.001000  dq finite difference perturbation B field
   LLRAUG    =     F  two centre corrections for induced B field



--------------------------------------------------------------------------------------------------------


 Static calculation
 charge density and potential will be updated during run
 spin polarized calculation
 Conjugate gradient for all bands (Freysoldt, et al. PRB 79, 241103 (2009))
 perform sub-space diagonalisation
    before iterative eigenvector-optimisation
 modified Broyden-mixing scheme, WC =      100.0
 initial mixing is a Kerker type mixing with AMIX =  0.4000 and BMIX =      1.0000
 Hartree-type preconditioning will be used
 using additional bands           34
 reciprocal scheme for non local part
 use partial core corrections
 no Harris-corrections to forces 
 use gradient corrections 
 use of overlap-Matrix (Vanderbilt PP)
 Gauss-broadening in eV      SIGMA  =   0.10


--------------------------------------------------------------------------------------------------------


  energy-cutoff  :      500.00
  volume of cell :     3176.89
      direct lattice vectors                 reciprocal lattice vectors
    12.722400000  0.000000000  0.000000000     0.078601522 -0.000001235 -0.000000961
     0.000195988 12.476999998  0.000000000     0.000000000  0.080147471  0.000067704
     0.000244511 -0.016906193 20.013492858     0.000000000  0.000000000  0.049966291

  length of vectors
    12.722400000 12.477000000 20.013500000     0.078601522  0.080147500  0.049966291


 
 old parameters found on file WAVECAR:
  energy-cutoff  :      500.00
  volume of cell :     3176.89
      direct lattice vectors                 reciprocal lattice vectors
    12.722400000  0.000000000  0.000000000     0.078601522 -0.000001235 -0.000000961
     0.000195988 12.476999998  0.000000000     0.000000000  0.080147471  0.000067704
     0.000244511 -0.016906193 20.013492858     0.000000000  0.000000000  0.049966291

  length of vectors

 
 k-points in units of 2pi/SCALE and weight: KPOINTS created by Atomic Simulation Env
   0.01965038  0.02003656  0.00001669       0.500
  -0.01965038  0.02003718  0.00001717       0.500
 
 k-points in reciprocal lattice and weights: KPOINTS created by Atomic Simulation Env
   0.25000000  0.25000000  0.00000000       0.500
  -0.25000000  0.25000000  0.00000000       0.500
 
 position of ions in fractional coordinates (direct lattice) 
   0.22116587  0.99991881  0.50436166
   0.05526622  0.10073832  0.50451742
   0.10956935  0.99997064  0.50415290
   0.27674131  0.09944968  0.50516846
   0.22402139  0.20012567  0.50417147
   0.05561934  0.30055636  0.50362866
   0.11131160  0.20089258  0.50422455
   0.28364850  0.29843386  0.50200273
   0.22629207  0.39853515  0.50006142
   0.05612383  0.49981431  0.50079231
   0.11305896  0.39963073  0.50190823
   0.28223066  0.49850103  0.49355842
   0.22669276  0.60066017  0.49557987
   0.05565320  0.69889162  0.50098998
   0.11336725  0.59987845  0.49940503
   0.28258246  0.70175410  0.49551002
   0.22331840  0.79983351  0.50061939
   0.05516779  0.89931460  0.50335875
   0.11092763  0.79896476  0.50192646
   0.27654443  0.90071121  0.50270266
   0.55452405  0.00032542  0.50585624
   0.38820040  0.09901490  0.50631670
   0.44390048  0.00032752  0.50585426
   0.61022380  0.09901466  0.50632111
   0.55540793  0.19704440  0.50535530
   0.44301878  0.19704945  0.50535263
   0.55557848  0.80401923  0.49749988
   0.38825738  0.90193025  0.50286686
   0.44284841  0.80402013  0.49749833
   0.61016459  0.90192426  0.50286982
   0.88885635  0.99996821  0.50415897
   0.72168510  0.09944570  0.50517491
   0.77725536  0.99992202  0.50436847
   0.94316328  0.10073808  0.50451970
   0.88711794  0.20089033  0.50422681
   0.71477363  0.29842759  0.50201049
   0.77440483  0.20012366  0.50417588
   0.94280593  0.30055654  0.50362878
   0.88536481  0.39962733  0.50190956
   0.71619854  0.49850414  0.49356654
   0.77213696  0.39853759  0.50007004
   0.94229849  0.49982066  0.50079393
   0.88505901  0.59987535  0.49941214
   0.71583707  0.70175242  0.49551949
   0.77172960  0.60065320  0.49558953
   0.94276942  0.69889520  0.50099425
   0.88749903  0.79895978  0.50193361
   0.72188346  0.90070496  0.50270696
   0.77510253  0.79983715  0.50062786
   0.94325640  0.89931295  0.50336263
   0.39316300  0.29521025  0.50164527
   0.60525888  0.29521926  0.50165302
   0.38624387  0.49820980  0.48405055
   0.61217720  0.49820248  0.48405663
   0.39166175  0.70704483  0.49044971
   0.60677177  0.70703970  0.49044977
   0.49922036  0.40491101  0.49043783
   0.49921806  0.58891402  0.46155515
 
 position of ions in cartesian coordinates  (Angst):
   2.81408001 12.46746016 10.09403849
   0.70326212  1.24838253 10.09715581
   1.39430433 12.46811042 10.08986050
   3.52095660  1.23229314 10.11018529
   2.85025225  2.48844440 10.09023220
   0.70779348  3.74152721 10.07936866
   1.41631335  2.49801217 10.09129436
   3.60887095  3.71507230 10.04682806
   2.87917857  4.96406899 10.00797562
   0.71425022  6.22771659 10.02260335
   1.43858239  4.97770729 10.04493684
   3.59086972  6.21145316  9.87782781
   2.88431488  7.48605857  9.91828424
   0.70830170  8.71160086 10.02655946
   1.44254318  7.47624038  9.99483905
   3.59538585  8.74740870  9.91688616
   2.84142522  9.97105912 10.01914268
   0.70216607 11.21223844 10.07396678
   1.41154505  9.96019766 10.04530163
   3.51860826 11.22967502 10.06083609
   7.05500056 -0.00449184 10.12395016
   4.93898397  1.22684907 10.13316561
   5.64760327 -0.00446566 10.12391054
   7.76365453  1.22684592 10.13325395
   7.06628407  2.44997934 10.11392466
   5.63642435  2.45004245 10.11387120
   7.06857094 10.02333716  9.95671027
   4.93986548 11.24488213 10.06412234
   5.63437386 10.02334836  9.95667924
   7.76305770 11.24480742 10.06418164
  11.30870529 12.46807992 10.08998202
   9.18170957  1.23224341 10.11031437
   9.88887288 12.46750007 10.09417477
  11.99944362  1.24837953 10.09720135
  11.28643197  2.49798411 10.09133962
   9.09381730  3.71499397 10.04698343
   9.85245046  2.48841922 10.09032028
  11.99493619  3.74152948 10.07937106
  11.26416625  4.97766485 10.04496341
   9.11198263  6.21149187  9.87799052
   9.82363558  4.96409924 10.00814808
  11.98851878  6.22779583 10.02263576
  11.26031448  7.47620156  9.99498124
   9.10742430  8.74738755  9.91707572
   9.81849156  7.48597141  9.91847755
  11.99454913  8.71164551 10.02664491
  11.29139702  9.96013533 10.04544472
   9.18438957 11.22959693 10.06092210
   9.86144362  9.97110441 10.01931220
  12.00078459 11.21221779 10.07404438
   5.00215752  3.67485744 10.03967394
   7.70052610  3.67496961 10.03982906
   4.91416496  6.20798019  9.68754217
   7.78857917  6.20788880  9.68766396
   4.98313591  8.81350669  9.81561181
   7.71985169  8.81344268  9.81561298
   6.35148038  5.04378328  9.81537403
   6.35148014  7.34007714  9.23733077
 


--------------------------------------------------------------------------------------------------------


 k-point  1 :   0.2500 0.2500 0.0000  plane waves:   80632
 k-point  2 :  -0.2500 0.2500 0.0000  plane waves:   80633

 maximum and minimum number of plane-waves per node :      2039     1987

 maximum number of plane-waves:     80633
 maximum index in each direction: 
   IXMAX=   23   IYMAX=   22   IZMAX=   36
   IXMIN=  -23   IYMIN=  -22   IZMIN=  -36


 parallel 3D FFT for wavefunctions:
    minimum data exchange during FFTs selected (reduces bandwidth)
 parallel 3D FFT for charge:
    minimum data exchange during FFTs selected (reduces bandwidth)


 FFT grid for exact exchange (Hartree Fock) 
  NGX = 70; NGY = 70; NGZ =112

 
 Radii for the augmentation spheres in the non-local exchange
 for species   1 augmentation radius   0.874 (default was   0.699)
       energy cutoff for augmentation   2000.0
 for species   2 augmentation radius   0.886 (default was   0.709)
       energy cutoff for augmentation   2000.0
 for species   3 augmentation radius   1.263 (default was   1.010)
       energy cutoff for augmentation   2000.0
 for species   4 augmentation radius   1.575 (default was   1.260)
       energy cutoff for augmentation   2000.0

 real space projection operators:
  total allocation   :       2738.48 KBytes
  max/ min on nodes  :         97.00         49.08

 Maximum index for augmentation-charges in exchange          161
  SETUP_FOCK is finished

 total amount of memory used by VASP MPI-rank0   142148. kBytes
=======================================================================

   base      :      30000. kBytes
   nonl-proj :       4257. kBytes
   fftplans  :      11848. kBytes
   grid      :      31266. kBytes
   one-center:         62. kBytes
   HF        :         23. kBytes
   nonlr-proj:       3000. kBytes
   wavefun   :      61692. kBytes
 
     INWAV:  cpu time    2.7711: real time    5.3483
 Broyden mixing: mesh for mixing (old mesh)
   NGX = 47   NGY = 45   NGZ = 73
  (NGX  =192   NGY  =192   NGZ  =300)
  gives a total of 154395 points

 charge density for first step will be calculated from the start-wavefunctions


--------------------------------------------------------------------------------------------------------


 Maximum index for augmentation-charges          350 (set IRDMAX)


--------------------------------------------------------------------------------------------------------


 initial charge from wavefunction
 First call to EWALD:  gamma=   0.121
 Maximum number of real-space cells 3x 3x 2
 Maximum number of reciprocal cells 2x 2x 4

    FEWALD:  cpu time    0.0025: real time    0.0025


--------------------------------------- Iteration      1(   1)  ---------------------------------------


    POTLOK:  cpu time    0.9158: real time    0.9198
    SETDIJ:  cpu time    1.0163: real time    1.0190
    TRIAL :  cpu time  160.2422: real time  160.7352
    CORREC:  cpu time    0.0014: real time    0.0014
    CHARGE:  cpu time    0.7395: real time    0.7414
    --------------------------------------------
      LOOP:  cpu time  162.9356: real time  163.4392

 eigenvalue-minimisations  :     0
 total energy-change (2. order) :-0.6093514E+03  (-0.4832152E+00)
 number of electron     242.0000011 magnetization       0.0096051
 augmentation part       11.2055044 magnetization       0.0090440

 DIPCOR: dipole corrections for dipol
 direction  3 min pos     1,
 dipolmoment           0.000004     -0.000300      0.355022 electrons x Angstroem
 Tr[quadrupol]     -6503.918737

 energy correction for charged system         0.000000 eV
 dipol+quadrupol energy correction            0.003603 eV
 added-field ion interaction          0.000000 eV  (added to PSCEN)


 Free energy of the ion-electron system (eV)
  ---------------------------------------------------
  alpha Z        PSCENC =       101.36434270
  Ewald energy   TEWEN  =     38786.32401569
  -Hartree energ DENC   =    -47010.24943857
  -exchange      EXHF   =       547.06111003
  -V(xc)+E(xc)   XCENC  =       594.25346513
  PAW double counting   =     26203.83109473   -26209.55612673
  entropy T*S    EENTRO =        -0.03523805
  eigenvalues    EBANDS =     -3143.59169728
  atomic energy  EATOM  =      9521.25154468
  ---------------------------------------------------
  free energy    TOTEN  =      -609.35138675 eV

  energy without entropy =     -609.31614869  energy(sigma->0) =     -609.33376772
  exchange ACFDT corr.  =        -0.06954181  see jH, gK, PRB 81, 115126


--------------------------------------------------------------------------------------------------------




--------------------------------------- Iteration      1(   2)  ---------------------------------------


    POTLOK:  cpu time    0.9278: real time    0.9335
    SETDIJ:  cpu time    1.0003: real time    1.0030
    TRIAL :  cpu time  157.7598: real time  158.2215
    CORREC:  cpu time    0.0012: real time    0.0012
    CHARGE:  cpu time    0.7384: real time    0.7404
    --------------------------------------------
      LOOP:  cpu time  160.4291: real time  160.9053

 eigenvalue-minimisations  :     0
 total energy-change (2. order) :-0.3814444E+00  (-0.3884308E+00)
 number of electron     242.0000011 magnetization       0.0135101
 augmentation part       11.1440495 magnetization       0.0126995

 DIPCOR: dipole corrections for dipol
 direction  3 min pos     1,
 dipolmoment           0.000005     -0.000350      0.413983 electrons x Angstroem
 Tr[quadrupol]     -6503.780735

 energy correction for charged system         0.000000 eV
 dipol+quadrupol energy correction            0.004899 eV
 added-field ion interaction          0.000000 eV  (added to PSCEN)


 Free energy of the ion-electron system (eV)
  ---------------------------------------------------
  alpha Z        PSCENC =       101.36563889
  Ewald energy   TEWEN  =     38786.32401569
  -Hartree energ DENC   =    -46996.46288093
  -exchange      EXHF   =       547.00367993
  -V(xc)+E(xc)   XCENC  =       593.95728702
  PAW double counting   =     26346.06950268   -26351.20654487
  entropy T*S    EENTRO =        -0.02948374
  eigenvalues    EBANDS =     -3157.99983623
  atomic energy  EATOM  =      9521.25154468
  ---------------------------------------------------
  free energy    TOTEN  =      -609.73283119 eV

  energy without entropy =     -609.70334745  energy(sigma->0) =     -609.71808932
  exchange ACFDT corr.  =        -0.09542338  see jH, gK, PRB 81, 115126


--------------------------------------------------------------------------------------------------------




--------------------------------------- Iteration      1(   3)  ---------------------------------------


    POTLOK:  cpu time    0.9354: real time    0.9381
    SETDIJ:  cpu time    0.9957: real time    0.9983
    TRIAL :  cpu time  158.0170: real time  158.4868
    CORREC:  cpu time    0.0015: real time    0.0015
    CHARGE:  cpu time    0.7441: real time    0.7462
    --------------------------------------------
      LOOP:  cpu time  160.6954: real time  161.1760

 eigenvalue-minimisations  :     0
 total energy-change (2. order) :-0.2990764E+00  (-0.2539367E+00)
 number of electron     242.0000011 magnetization       0.0166923
 augmentation part       11.1223219 magnetization       0.0163160

 DIPCOR: dipole corrections for dipol
 direction  3 min pos     1,
 dipolmoment           0.000005     -0.000369      0.436353 electrons x Angstroem
 Tr[quadrupol]     -6503.624990

 energy correction for charged system         0.000000 eV
 dipol+quadrupol energy correction            0.005443 eV
 added-field ion interaction          0.000000 eV  (added to PSCEN)


 Free energy of the ion-electron system (eV)
  ---------------------------------------------------
  alpha Z        PSCENC =       101.36618267
  Ewald energy   TEWEN  =     38786.32401569
  -Hartree energ DENC   =    -46980.95630192
  -exchange      EXHF   =       546.93009755
  -V(xc)+E(xc)   XCENC  =       593.56741274
  PAW double counting   =     26523.66560278   -26528.46580238
  entropy T*S    EENTRO =        -0.02263746
  eigenvalues    EBANDS =     -3173.68517564
  atomic energy  EATOM  =      9521.25154468
  ---------------------------------------------------
  free energy    TOTEN  =      -610.03190757 eV

  energy without entropy =     -610.00927011  energy(sigma->0) =     -610.02058884
  exchange ACFDT corr.  =        -0.05480964  see jH, gK, PRB 81, 115126


--------------------------------------------------------------------------------------------------------




--------------------------------------- Iteration      1(   4)  ---------------------------------------


    POTLOK:  cpu time    1.0172: real time    1.0204
    SETDIJ:  cpu time    0.9919: real time    0.9958
    TRIAL :  cpu time  157.9583: real time  158.4216
    CORREC:  cpu time    0.0013: real time    0.0013
    CHARGE:  cpu time    0.7341: real time    0.7361
    --------------------------------------------
      LOOP:  cpu time  160.7046: real time  161.1803

 eigenvalue-minimisations  :     0
 total energy-change (2. order) :-0.2024648E+00  (-0.1715859E+00)
 number of electron     242.0000011 magnetization       0.0176423
 augmentation part       11.1335499 magnetization       0.0189908

 DIPCOR: dipole corrections for dipol
 direction  3 min pos     1,
 dipolmoment           0.000005     -0.000358      0.423722 electrons x Angstroem
 Tr[quadrupol]     -6503.558623

 energy correction for charged system         0.000000 eV
 dipol+quadrupol energy correction            0.005133 eV
 added-field ion interaction          0.000000 eV  (added to PSCEN)


 Free energy of the ion-electron system (eV)
  ---------------------------------------------------
  alpha Z        PSCENC =       101.36587211
  Ewald energy   TEWEN  =     38786.32401569
  -Hartree energ DENC   =    -46971.82842811
  -exchange      EXHF   =       546.99937602
  -V(xc)+E(xc)   XCENC  =       593.30711391
  PAW double counting   =     26665.92436038   -26670.61866064
  entropy T*S    EENTRO =        -0.01604304
  eigenvalues    EBANDS =     -3182.93692899
  atomic energy  EATOM  =      9521.25154468
  ---------------------------------------------------
  free energy    TOTEN  =      -610.23437241 eV

  energy without entropy =     -610.21832938  energy(sigma->0) =     -610.22635090
  exchange ACFDT corr.  =        -0.03934807  see jH, gK, PRB 81, 115126


--------------------------------------------------------------------------------------------------------




--------------------------------------- Iteration      1(   5)  ---------------------------------------


    POTLOK:  cpu time    0.9341: real time    0.9379
    SETDIJ:  cpu time    0.9971: real time    0.9996
    TRIAL :  cpu time  158.1893: real time  158.6518
    CORREC:  cpu time    0.0014: real time    0.0014
    CHARGE:  cpu time    0.7367: real time    0.7387
    --------------------------------------------
      LOOP:  cpu time  160.8602: real time  161.3343

 eigenvalue-minimisations  :     0
 total energy-change (2. order) :-0.1417902E+00  (-0.1298357E+00)
 number of electron     242.0000011 magnetization       0.0144322
 augmentation part       11.1425741 magnetization       0.0193229

 DIPCOR: dipole corrections for dipol
 direction  3 min pos     1,
 dipolmoment           0.000005     -0.000352      0.416162 electrons x Angstroem
 Tr[quadrupol]     -6503.604249

 energy correction for charged system         0.000000 eV
 dipol+quadrupol energy correction            0.004951 eV
 added-field ion interaction          0.000000 eV  (added to PSCEN)


 Free energy of the ion-electron system (eV)
  ---------------------------------------------------
  alpha Z        PSCENC =       101.36569060
  Ewald energy   TEWEN  =     38786.32401569
  -Hartree energ DENC   =    -46972.69402440
  -exchange      EXHF   =       547.27024555
  -V(xc)+E(xc)   XCENC  =       593.29988651
  PAW double counting   =     26763.11457648   -26767.99296961
  entropy T*S    EENTRO =        -0.00977672
  eigenvalues    EBANDS =     -3182.29908514
  atomic energy  EATOM  =      9521.25154468
  ---------------------------------------------------
  free energy    TOTEN  =      -610.37616265 eV

  energy without entropy =     -610.36638593  energy(sigma->0) =     -610.37127429
  exchange ACFDT corr.  =        -0.02584904  see jH, gK, PRB 81, 115126


--------------------------------------------------------------------------------------------------------




--------------------------------------- Iteration      1(   6)  ---------------------------------------


    POTLOK:  cpu time    0.9342: real time    0.9367
    SETDIJ:  cpu time    0.9953: real time    0.9978
    TRIAL :  cpu time  158.3888: real time  159.4346
    CORREC:  cpu time    0.0015: real time    0.0015
    CHARGE:  cpu time    0.7366: real time    0.7386
    --------------------------------------------
      LOOP:  cpu time  161.0580: real time  162.1142

 eigenvalue-minimisations  :     0
 total energy-change (2. order) :-0.1107211E+00  (-0.1018811E+00)
 number of electron     242.0000011 magnetization       0.0091265
 augmentation part       11.1488611 magnetization       0.0179814

 DIPCOR: dipole corrections for dipol
 direction  3 min pos     1,
 dipolmoment           0.000005     -0.000361      0.427666 electrons x Angstroem
 Tr[quadrupol]     -6503.694203

 energy correction for charged system         0.000000 eV
 dipol+quadrupol energy correction            0.005229 eV
 added-field ion interaction          0.000000 eV  (added to PSCEN)


 Free energy of the ion-electron system (eV)
  ---------------------------------------------------
  alpha Z        PSCENC =       101.36596812
  Ewald energy   TEWEN  =     38786.32401569
  -Hartree energ DENC   =    -46977.81057535
  -exchange      EXHF   =       547.64040480
  -V(xc)+E(xc)   XCENC  =       593.43738782
  PAW double counting   =     26823.49014498   -26828.47772897
  entropy T*S    EENTRO =        -0.00522180
  eigenvalues    EBANDS =     -3177.69826885
  atomic energy  EATOM  =      9521.25154468
  ---------------------------------------------------
  free energy    TOTEN  =      -610.48688379 eV

  energy without entropy =     -610.48166199  energy(sigma->0) =     -610.48427289
  exchange ACFDT corr.  =        -0.02328628  see jH, gK, PRB 81, 115126


--------------------------------------------------------------------------------------------------------




--------------------------------------- Iteration      1(   7)  ---------------------------------------


    POTLOK:  cpu time    0.9386: real time    0.9412
    SETDIJ:  cpu time    0.9933: real time    0.9959
    TRIAL :  cpu time  157.9123: real time  158.3771
    CORREC:  cpu time    0.0014: real time    0.0014
    CHARGE:  cpu time    0.7350: real time    0.7371
    --------------------------------------------
      LOOP:  cpu time  160.5823: real time  161.0575

 eigenvalue-minimisations  :     0
 total energy-change (2. order) :-0.8735393E-01  (-0.7748135E-01)
 number of electron     242.0000011 magnetization       0.0045899
 augmentation part       11.1546950 magnetization       0.0161729

 DIPCOR: dipole corrections for dipol
 direction  3 min pos     1,
 dipolmoment           0.000005     -0.000376      0.444520 electrons x Angstroem
 Tr[quadrupol]     -6503.773343

 energy correction for charged system         0.000000 eV
 dipol+quadrupol energy correction            0.005649 eV
 added-field ion interaction          0.000000 eV  (added to PSCEN)


 Free energy of the ion-electron system (eV)
  ---------------------------------------------------
  alpha Z        PSCENC =       101.36638834
  Ewald energy   TEWEN  =     38786.32401569
  -Hartree energ DENC   =    -46983.10955600
  -exchange      EXHF   =       547.97902271
  -V(xc)+E(xc)   XCENC  =       593.59666765
  PAW double counting   =     26858.66956610   -26863.72615061
  entropy T*S    EENTRO =        -0.00249181
  eigenvalues    EBANDS =     -3172.92051449
  atomic energy  EATOM  =      9521.25154468
  ---------------------------------------------------
  free energy    TOTEN  =      -610.57423772 eV

  energy without entropy =     -610.57174590  energy(sigma->0) =     -610.57299181
  exchange ACFDT corr.  =        -0.01110633  see jH, gK, PRB 81, 115126


--------------------------------------------------------------------------------------------------------




--------------------------------------- Iteration      1(   8)  ---------------------------------------


    POTLOK:  cpu time    0.9300: real time    0.9334
    SETDIJ:  cpu time    0.9965: real time    0.9990
    TRIAL :  cpu time  157.9337: real time  158.3922
    CORREC:  cpu time    0.0012: real time    0.0012
    CHARGE:  cpu time    0.7375: real time    0.7395
    --------------------------------------------
      LOOP:  cpu time  160.6005: real time  161.0702

 eigenvalue-minimisations  :     0
 total energy-change (2. order) :-0.6752366E-01  (-0.6051715E-01)
 number of electron     242.0000011 magnetization       0.0019160
 augmentation part       11.1605696 magnetization       0.0144980

 DIPCOR: dipole corrections for dipol
 direction  3 min pos     1,
 dipolmoment           0.000006     -0.000383      0.453804 electrons x Angstroem
 Tr[quadrupol]     -6503.817759

 energy correction for charged system         0.000000 eV
 dipol+quadrupol energy correction            0.005887 eV
 added-field ion interaction          0.000000 eV  (added to PSCEN)


 Free energy of the ion-electron system (eV)
  ---------------------------------------------------
  alpha Z        PSCENC =       101.36662677
  Ewald energy   TEWEN  =     38786.32401569
  -Hartree energ DENC   =    -46986.31844697
  -exchange      EXHF   =       548.21955384
  -V(xc)+E(xc)   XCENC  =       593.70189764
  PAW double counting   =     26877.13347467   -26882.23800792
  entropy T*S    EENTRO =        -0.00107239
  eigenvalues    EBANDS =     -3170.07992797
  atomic energy  EATOM  =      9521.25154468
  ---------------------------------------------------
  free energy    TOTEN  =      -610.64176137 eV

  energy without entropy =     -610.64068899  energy(sigma->0) =     -610.64122518
  exchange ACFDT corr.  =        -0.00464894  see jH, gK, PRB 81, 115126


--------------------------------------------------------------------------------------------------------




--------------------------------------- Iteration      1(   9)  ---------------------------------------


    POTLOK:  cpu time    0.9276: real time    0.9310
    SETDIJ:  cpu time    1.0007: real time    1.0033
    TRIAL :  cpu time  157.8581: real time  158.3192
    CORREC:  cpu time    0.0011: real time    0.0011
    CHARGE:  cpu time    0.7380: real time    0.7399
    --------------------------------------------
      LOOP:  cpu time  160.5265: real time  160.9993

 eigenvalue-minimisations  :     0
 total energy-change (2. order) :-0.5377516E-01  (-0.4786503E-01)
 number of electron     242.0000011 magnetization       0.0007076
 augmentation part       11.1660582 magnetization       0.0130434

 DIPCOR: dipole corrections for dipol
 direction  3 min pos     1,
 dipolmoment           0.000006     -0.000383      0.453626 electrons x Angstroem
 Tr[quadrupol]     -6503.831589

 energy correction for charged system         0.000000 eV
 dipol+quadrupol energy correction            0.005883 eV
 added-field ion interaction          0.000000 eV  (added to PSCEN)


 Free energy of the ion-electron system (eV)
  ---------------------------------------------------
  alpha Z        PSCENC =       101.36662216
  Ewald energy   TEWEN  =     38786.32401569
  -Hartree energ DENC   =    -46987.33376226
  -exchange      EXHF   =       548.36626656
  -V(xc)+E(xc)   XCENC  =       593.74397238
  PAW double counting   =     26885.60655729   -26890.74294276
  entropy T*S    EENTRO =        -0.00042792
  eigenvalues    EBANDS =     -3169.27673789
  atomic energy  EATOM  =      9521.25154468
  ---------------------------------------------------
  free energy    TOTEN  =      -610.69553653 eV

  energy without entropy =     -610.69510861  energy(sigma->0) =     -610.69532257
  exchange ACFDT corr.  =        -0.00172324  see jH, gK, PRB 81, 115126


--------------------------------------------------------------------------------------------------------




--------------------------------------- Iteration      1(  10)  ---------------------------------------


    POTLOK:  cpu time    0.9314: real time    0.9367
    SETDIJ:  cpu time    0.9996: real time    1.0022
    TRIAL :  cpu time  157.9006: real time  158.3708
    CORREC:  cpu time    0.0009: real time    0.0009
    CHARGE:  cpu time    0.7409: real time    0.7430
    --------------------------------------------
      LOOP:  cpu time  160.5751: real time  161.0584

 eigenvalue-minimisations  :     0
 total energy-change (2. order) :-0.4296478E-01  (-0.3764567E-01)
 number of electron     242.0000011 magnetization       0.0002459
 augmentation part       11.1702085 magnetization       0.0117322

 DIPCOR: dipole corrections for dipol
 direction  3 min pos     1,
 dipolmoment           0.000005     -0.000380      0.449681 electrons x Angstroem
 Tr[quadrupol]     -6503.831713

 energy correction for charged system         0.000000 eV
 dipol+quadrupol energy correction            0.005781 eV
 added-field ion interaction          0.000000 eV  (added to PSCEN)


 Free energy of the ion-electron system (eV)
  ---------------------------------------------------
  alpha Z        PSCENC =       101.36652028
  Ewald energy   TEWEN  =     38786.32401569
  -Hartree energ DENC   =    -46987.27779585
  -exchange      EXHF   =       548.45872182
  -V(xc)+E(xc)   XCENC  =       593.75257328
  PAW double counting   =     26889.09038200   -26894.25944831
  entropy T*S    EENTRO =        -0.00016446
  eigenvalues    EBANDS =     -3169.44458698
  atomic energy  EATOM  =      9521.25154468
  ---------------------------------------------------
  free energy    TOTEN  =      -610.73850131 eV

  energy without entropy =     -610.73833685  energy(sigma->0) =     -610.73841908
  exchange ACFDT corr.  =        -0.00058456  see jH, gK, PRB 81, 115126


--------------------------------------------------------------------------------------------------------




--------------------------------------- Iteration      1(  11)  ---------------------------------------


    POTLOK:  cpu time    0.9262: real time    0.9289
    SETDIJ:  cpu time    0.9977: real time    1.0002
    TRIAL :  cpu time  158.0528: real time  158.5173
    CORREC:  cpu time    0.0013: real time    0.0013
    CHARGE:  cpu time    0.7385: real time    0.7405
    --------------------------------------------
      LOOP:  cpu time  160.7180: real time  161.1931

 eigenvalue-minimisations  :     0
 total energy-change (2. order) :-0.3408537E-01  (-0.2986592E-01)
 number of electron     242.0000011 magnetization       0.0000845
 augmentation part       11.1727436 magnetization       0.0105116

 DIPCOR: dipole corrections for dipol
 direction  3 min pos     1,
 dipolmoment           0.000005     -0.000378      0.448020 electrons x Angstroem
 Tr[quadrupol]     -6503.832481

 energy correction for charged system         0.000000 eV
 dipol+quadrupol energy correction            0.005738 eV
 added-field ion interaction          0.000000 eV  (added to PSCEN)


 Free energy of the ion-electron system (eV)
  ---------------------------------------------------
  alpha Z        PSCENC =       101.36647765
  Ewald energy   TEWEN  =     38786.32401569
  -Hartree energ DENC   =    -46987.21622524
  -exchange      EXHF   =       548.53494619
  -V(xc)+E(xc)   XCENC  =       593.75903681
  PAW double counting   =     26890.80626221   -26896.01345825
  entropy T*S    EENTRO =        -0.00006333
  eigenvalues    EBANDS =     -3169.58502198
  atomic energy  EATOM  =      9521.25154468
  ---------------------------------------------------
  free energy    TOTEN  =      -610.77258668 eV

  energy without entropy =     -610.77252335  energy(sigma->0) =     -610.77255502
  exchange ACFDT corr.  =        -0.00018975  see jH, gK, PRB 81, 115126


--------------------------------------------------------------------------------------------------------




--------------------------------------- Iteration      1(  12)  ---------------------------------------


    POTLOK:  cpu time    0.9244: real time    0.9285
    SETDIJ:  cpu time    0.9962: real time    1.0001
    TRIAL :  cpu time  158.6237: real time  159.0824
    CORREC:  cpu time    0.0012: real time    0.0012
    CHARGE:  cpu time    0.7398: real time    0.7431
    --------------------------------------------
      LOOP:  cpu time  161.2868: real time  161.7601

 eigenvalue-minimisations  :     0
 total energy-change (2. order) :-0.2718885E-01  (-0.2379561E-01)
 number of electron     242.0000011 magnetization       0.0000300
 augmentation part       11.1744162 magnetization       0.0093715

 DIPCOR: dipole corrections for dipol
 direction  3 min pos     1,
 dipolmoment           0.000005     -0.000380      0.449826 electrons x Angstroem
 Tr[quadrupol]     -6503.837853

 energy correction for charged system         0.000000 eV
 dipol+quadrupol energy correction            0.005784 eV
 added-field ion interaction          0.000000 eV  (added to PSCEN)


 Free energy of the ion-electron system (eV)
  ---------------------------------------------------
  alpha Z        PSCENC =       101.36652399
  Ewald energy   TEWEN  =     38786.32401569
  -Hartree energ DENC   =    -46987.46632558
  -exchange      EXHF   =       548.60930701
  -V(xc)+E(xc)   XCENC  =       593.77359044
  PAW double counting   =     26892.34953750   -26897.59134190
  entropy T*S    EENTRO =        -0.00002553
  eigenvalues    EBANDS =     -3169.41656405
  atomic energy  EATOM  =      9521.25154468
  ---------------------------------------------------
  free energy    TOTEN  =      -610.79977553 eV

  energy without entropy =     -610.79975001  energy(sigma->0) =     -610.79976277
  exchange ACFDT corr.  =        -0.00006160  see jH, gK, PRB 81, 115126


--------------------------------------------------------------------------------------------------------




--------------------------------------- Iteration      1(  13)  ---------------------------------------


    POTLOK:  cpu time    0.9217: real time    0.9241
    SETDIJ:  cpu time    0.9975: real time    1.0001
    TRIAL :  cpu time  158.1069: real time  158.5648
    CORREC:  cpu time    0.0012: real time    0.0012
    CHARGE:  cpu time    0.7372: real time    0.7391
    --------------------------------------------
      LOOP:  cpu time  160.7661: real time  161.2345

 eigenvalue-minimisations  :     0
 total energy-change (2. order) :-0.2175172E-01  (-0.1900531E-01)
 number of electron     242.0000012 magnetization       0.0000114
 augmentation part       11.1760711 magnetization       0.0083182

 DIPCOR: dipole corrections for dipol
 direction  3 min pos     1,
 dipolmoment           0.000006     -0.000382      0.452630 electrons x Angstroem
 Tr[quadrupol]     -6503.845127

 energy correction for charged system         0.000000 eV
 dipol+quadrupol energy correction            0.005857 eV
 added-field ion interaction          0.000000 eV  (added to PSCEN)


 Free energy of the ion-electron system (eV)
  ---------------------------------------------------
  alpha Z        PSCENC =       101.36659634
  Ewald energy   TEWEN  =     38786.32401569
  -Hartree energ DENC   =    -46987.84992401
  -exchange      EXHF   =       548.67836144
  -V(xc)+E(xc)   XCENC  =       593.79075614
  PAW double counting   =     26894.02554798   -26899.29479710
  entropy T*S    EENTRO =        -0.00001121
  eigenvalues    EBANDS =     -3169.11360287
  atomic energy  EATOM  =      9521.25154468
  ---------------------------------------------------
  free energy    TOTEN  =      -610.82152726 eV

  energy without entropy =     -610.82151605  energy(sigma->0) =     -610.82152165
  exchange ACFDT corr.  =        -0.00002101  see jH, gK, PRB 81, 115126


--------------------------------------------------------------------------------------------------------




--------------------------------------- Iteration      1(  14)  ---------------------------------------


    POTLOK:  cpu time    0.9222: real time    0.9254
    SETDIJ:  cpu time    1.0067: real time    1.0093
    TRIAL :  cpu time  158.7377: real time  159.2016
    CORREC:  cpu time    0.0011: real time    0.0011
    CHARGE:  cpu time    0.7383: real time    0.7403
    --------------------------------------------
      LOOP:  cpu time  161.4075: real time  161.8827

 eigenvalue-minimisations  :     0
 total energy-change (2. order) :-0.1748931E-01  (-0.1525620E-01)
 number of electron     242.0000012 magnetization       0.0000047
 augmentation part       11.1778430 magnetization       0.0073530

 DIPCOR: dipole corrections for dipol
 direction  3 min pos     1,
 dipolmoment           0.000006     -0.000384      0.454296 electrons x Angstroem
 Tr[quadrupol]     -6503.851384

 energy correction for charged system         0.000000 eV
 dipol+quadrupol energy correction            0.005900 eV
 added-field ion interaction          0.000000 eV  (added to PSCEN)


 Free energy of the ion-electron system (eV)
  ---------------------------------------------------
  alpha Z        PSCENC =       101.36663954
  Ewald energy   TEWEN  =     38786.32401569
  -Hartree energ DENC   =    -46988.16991312
  -exchange      EXHF   =       548.73678885
  -V(xc)+E(xc)   XCENC  =       593.80414574
  PAW double counting   =     26895.77766542   -26901.07078994
  entropy T*S    EENTRO =        -0.00000547
  eigenvalues    EBANDS =     -3168.85910222
  atomic energy  EATOM  =      9521.25154468
  ---------------------------------------------------
  free energy    TOTEN  =      -610.83901656 eV

  energy without entropy =     -610.83901109  energy(sigma->0) =     -610.83901383
  exchange ACFDT corr.  =        -0.00000789  see jH, gK, PRB 81, 115126


--------------------------------------------------------------------------------------------------------




--------------------------------------- Iteration      1(  15)  ---------------------------------------


    POTLOK:  cpu time    0.9197: real time    0.9224
    SETDIJ:  cpu time    0.9986: real time    1.0012
    TRIAL :  cpu time  158.4649: real time  158.9353
    CORREC:  cpu time    0.0011: real time    0.0011
    CHARGE:  cpu time    0.7372: real time    0.7390
    --------------------------------------------
      LOOP:  cpu time  161.1232: real time  161.6043

 eigenvalue-minimisations  :     0
 total energy-change (2. order) :-0.1413151E-01  (-0.1228757E-01)
 number of electron     242.0000012 magnetization       0.0000021
 augmentation part       11.1793608 magnetization       0.0064678

 DIPCOR: dipole corrections for dipol
 direction  3 min pos     1,
 dipolmoment           0.000006     -0.000384      0.454616 electrons x Angstroem
 Tr[quadrupol]     -6503.855821

 energy correction for charged system         0.000000 eV
 dipol+quadrupol energy correction            0.005908 eV
 added-field ion interaction          0.000000 eV  (added to PSCEN)


 Free energy of the ion-electron system (eV)
  ---------------------------------------------------
  alpha Z        PSCENC =       101.36664786
  Ewald energy   TEWEN  =     38786.32401569
  -Hartree energ DENC   =    -46988.37742364
  -exchange      EXHF   =       548.78445035
  -V(xc)+E(xc)   XCENC  =       593.81263663
  PAW double counting   =     26897.65895410   -26902.97489384
  entropy T*S    EENTRO =        -0.00000297
  eigenvalues    EBANDS =     -3168.69907443
  atomic energy  EATOM  =      9521.25154468
  ---------------------------------------------------
  free energy    TOTEN  =      -610.85314807 eV

  energy without entropy =     -610.85314510  energy(sigma->0) =     -610.85314659
  exchange ACFDT corr.  =        -0.00000335  see jH, gK, PRB 81, 115126


--------------------------------------------------------------------------------------------------------




--------------------------------------- Iteration      1(  16)  ---------------------------------------


    POTLOK:  cpu time    0.9189: real time    0.9218
    SETDIJ:  cpu time    0.9985: real time    1.0010
    TRIAL :  cpu time  158.5466: real time  159.7086
    CORREC:  cpu time    0.0009: real time    0.0009
    CHARGE:  cpu time    0.7413: real time    0.7432
    --------------------------------------------
      LOOP:  cpu time  161.2074: real time  162.3804

 eigenvalue-minimisations  :     0
 total energy-change (2. order) :-0.1143149E-01  (-0.9933157E-02)
 number of electron     242.0000012 magnetization       0.0000010
 augmentation part       11.1803900 magnetization       0.0056550

 DIPCOR: dipole corrections for dipol
 direction  3 min pos     1,
 dipolmoment           0.000006     -0.000384      0.454669 electrons x Angstroem
 Tr[quadrupol]     -6503.859291

 energy correction for charged system         0.000000 eV
 dipol+quadrupol energy correction            0.005910 eV
 added-field ion interaction          0.000000 eV  (added to PSCEN)


 Free energy of the ion-electron system (eV)
  ---------------------------------------------------
  alpha Z        PSCENC =       101.36664923
  Ewald energy   TEWEN  =     38786.32401569
  -Hartree energ DENC   =    -46988.53857372
  -exchange      EXHF   =       548.82535830
  -V(xc)+E(xc)   XCENC  =       593.81920336
  PAW double counting   =     26899.73893392   -26905.07548415
  entropy T*S    EENTRO =        -0.00000178
  eigenvalues    EBANDS =     -3168.57622392
  atomic energy  EATOM  =      9521.25154468
  ---------------------------------------------------
  free energy    TOTEN  =      -610.86457957 eV

  energy without entropy =     -610.86457779  energy(sigma->0) =     -610.86457868
  exchange ACFDT corr.  =        -0.00000162  see jH, gK, PRB 81, 115126


--------------------------------------------------------------------------------------------------------




--------------------------------------- Iteration      1(  17)  ---------------------------------------


    POTLOK:  cpu time    0.9192: real time    0.9223
    SETDIJ:  cpu time    0.9976: real time    1.0002
    TRIAL :  cpu time  158.7671: real time  159.2257
    CORREC:  cpu time    0.0010: real time    0.0010
    CHARGE:  cpu time    0.7390: real time    0.7410
    --------------------------------------------
      LOOP:  cpu time  161.4257: real time  161.8954

 eigenvalue-minimisations  :     0
 total energy-change (2. order) :-0.9263230E-02  (-0.8063220E-02)
 number of electron     242.0000012 magnetization       0.0000005
 augmentation part       11.1810975 magnetization       0.0049139

 DIPCOR: dipole corrections for dipol
 direction  3 min pos     1,
 dipolmoment           0.000006     -0.000385      0.455198 electrons x Angstroem
 Tr[quadrupol]     -6503.862529

 energy correction for charged system         0.000000 eV
 dipol+quadrupol energy correction            0.005923 eV
 added-field ion interaction          0.000000 eV  (added to PSCEN)


 Free energy of the ion-electron system (eV)
  ---------------------------------------------------
  alpha Z        PSCENC =       101.36666301
  Ewald energy   TEWEN  =     38786.32401569
  -Hartree energ DENC   =    -46988.70599694
  -exchange      EXHF   =       548.86263942
  -V(xc)+E(xc)   XCENC  =       593.82622772
  PAW double counting   =     26901.87557197   -26907.22859282
  entropy T*S    EENTRO =        -0.00000116
  eigenvalues    EBANDS =     -3168.44591375
  atomic energy  EATOM  =      9521.25154468
  ---------------------------------------------------
  free energy    TOTEN  =      -610.87384280 eV

  energy without entropy =     -610.87384163  energy(sigma->0) =     -610.87384222
  exchange ACFDT corr.  =        -0.00000088  see jH, gK, PRB 81, 115126


--------------------------------------------------------------------------------------------------------




--------------------------------------- Iteration      1(  18)  ---------------------------------------


    POTLOK:  cpu time    0.9172: real time    0.9228
    SETDIJ:  cpu time    0.9979: real time    1.0004
    TRIAL :  cpu time  158.9515: real time  159.4386
[...]
  augment    23.28758    26.85685    27.57340    -0.00798    -0.61928     0.00872
  Kinetic  3598.14608  3656.91929  4140.94603    -0.01479    -2.54065     0.00946
  Fock     -287.32515  -289.96555  -264.32186     0.00660    -0.05540    -0.00645
  -------------------------------------------------------------------------------------
  Total     -45.89672   -45.17633    -0.91020    -0.02976    -0.57178     0.00033
  in kB     -23.14676   -22.78345    -0.45903    -0.01501    -0.28836     0.00017
  external pressure =      -15.46 kB  Pullay stress =        0.00 kB


 VOLUME and BASIS-vectors are now :
 -----------------------------------------------------------------------------
  energy-cutoff  :      500.00
  volume of cell :     3176.89
      direct lattice vectors                 reciprocal lattice vectors
    12.722400000  0.000000000  0.000000000     0.078601522 -0.000001235 -0.000000961
     0.000195988 12.476999998  0.000000000     0.000000000  0.080147471  0.000067704
     0.000244511 -0.016906193 20.013492858     0.000000000  0.000000000  0.049966291

  length of vectors
    12.722400000 12.477000000 20.013500000     0.078601522  0.080147500  0.049966291


 FORCES acting on ions:
    Electron-Ion                     Ewald-Force                    Non-Local-Force
 -----------------------------------------------------------------------------------------------
   0.555E+01 0.208E+01 -.134E+02   -.579E+01 -.221E+01 0.135E+02   0.319E+00 0.728E-01 -.385E-01
   -.349E+00 -.139E+01 -.111E+02   0.359E+00 0.141E+01 0.112E+02   0.424E-01 -.683E-01 -.261E-01
   0.868E+01 0.156E+01 -.102E+02   -.888E+01 -.154E+01 0.102E+02   0.126E+00 0.496E-02 0.167E-01
   0.150E+02 0.696E+01 -.166E+02   -.154E+02 -.719E+01 0.166E+02   0.400E+00 0.251E+00 0.197E-01
   0.163E+02 -.313E+01 -.139E+02   -.167E+02 0.300E+01 0.139E+02   0.419E+00 0.530E-01 -.311E-01
   0.325E+01 -.461E+01 -.129E+02   -.325E+01 0.499E+01 0.129E+02   0.157E+00 -.223E+00 -.170E-01
   0.639E+01 -.904E+00 -.116E+02   -.680E+01 0.117E+01 0.115E+02   0.384E+00 -.246E+00 0.271E-01
   0.407E+02 -.974E+01 -.116E+02   -.442E+02 0.103E+02 0.116E+02   0.365E+01 -.508E+00 -.343E-01
   0.149E+02 -.451E+01 -.107E+02   -.150E+02 0.515E+01 0.110E+02   0.327E+00 -.361E+00 -.325E+00
   0.281E+01 -.226E+01 -.583E+01   -.280E+01 0.221E+01 0.579E+01   0.173E+00 -.283E-01 0.300E-01
   0.465E+01 -.598E+01 -.110E+02   -.507E+01 0.612E+01 0.110E+02   0.555E-01 -.135E+00 -.620E-01
   0.403E+02 -.148E+02 0.915E+01   -.440E+02 0.146E+02 -.851E+01   0.323E+01 -.168E-01 -.532E+00
   0.238E+01 -.114E+01 0.109E+02   -.244E+01 0.794E+00 -.110E+02   0.192E+00 0.291E+00 0.169E+00
   0.153E+01 0.418E+01 -.659E+01   -.153E+01 -.449E+01 0.660E+01   0.175E+00 0.260E+00 -.230E-01
   0.141E+01 0.219E+01 -.266E+01   -.163E+01 -.227E+01 0.274E+01   0.243E-01 0.948E-01 -.719E-01
   0.223E+02 0.160E+02 0.813E+01   -.260E+02 -.165E+02 -.782E+01   0.350E+01 0.515E+00 -.337E+00
   0.870E+01 0.639E+01 -.807E+01   -.905E+01 -.648E+01 0.812E+01   0.406E+00 0.424E-02 -.843E-01
   -.148E+01 0.395E+01 -.970E+01   0.147E+01 -.399E+01 0.974E+01   0.339E-01 0.584E-01 -.322E-01
   0.501E+01 0.296E+01 -.886E+01   -.541E+01 -.331E+01 0.889E+01   0.343E+00 0.263E+00 -.266E-01
   0.109E+02 0.268E+01 -.112E+02   -.112E+02 -.244E+01 0.111E+02   0.357E+00 -.126E+00 0.769E-01
   -.567E+01 0.629E+01 -.266E+02   0.531E+01 -.629E+01 0.266E+02   0.300E+00 0.672E-01 -.391E-01
   0.786E+01 0.140E+02 -.269E+02   -.792E+01 -.147E+02 0.270E+02   0.905E-01 0.562E+00 -.654E-01
   0.566E+01 0.630E+01 -.265E+02   -.530E+01 -.630E+01 0.266E+02   -.300E+00 0.668E-01 -.392E-01
   -.787E+01 0.141E+02 -.269E+02   0.793E+01 -.147E+02 0.270E+02   -.902E-01 0.562E+00 -.657E-01
   0.225E+01 0.334E+02 -.300E+02   -.358E+01 -.362E+02 0.302E+02   0.129E+01 0.287E+01 -.289E+00
   -.226E+01 0.334E+02 -.300E+02   0.359E+01 -.363E+02 0.302E+02   -.129E+01 0.287E+01 -.290E+00
   0.125E+02 -.320E+01 -.334E+01   -.140E+02 0.621E+01 0.396E+01   0.126E+01 -.273E+01 -.583E+00
   0.491E+01 -.669E+00 -.182E+02   -.488E+01 0.103E+01 0.184E+02   0.152E-01 -.485E+00 -.147E+00
   -.125E+02 -.322E+01 -.333E+01   0.140E+02 0.623E+01 0.395E+01   -.126E+01 -.273E+01 -.583E+00
   -.492E+01 -.683E+00 -.182E+02   0.489E+01 0.104E+01 0.184E+02   -.144E-01 -.484E+00 -.147E+00
   -.867E+01 0.155E+01 -.102E+02   0.887E+01 -.153E+01 0.102E+02   -.126E+00 0.600E-02 0.164E-01
   -.150E+02 0.694E+01 -.167E+02   0.154E+02 -.717E+01 0.166E+02   -.401E+00 0.252E+00 0.194E-01
   -.556E+01 0.211E+01 -.134E+02   0.580E+01 -.224E+01 0.135E+02   -.317E+00 0.705E-01 -.388E-01
   0.353E+00 -.137E+01 -.111E+02   -.364E+00 0.140E+01 0.112E+02   -.430E-01 -.684E-01 -.259E-01
   -.638E+01 -.910E+00 -.116E+02   0.679E+01 0.118E+01 0.115E+02   -.385E+00 -.245E+00 0.270E-01
   -.408E+02 -.975E+01 -.116E+02   0.442E+02 0.103E+02 0.116E+02   -.365E+01 -.504E+00 -.345E-01
   -.163E+02 -.313E+01 -.139E+02   0.167E+02 0.300E+01 0.139E+02   -.420E+00 0.533E-01 -.306E-01
   -.325E+01 -.460E+01 -.129E+02   0.325E+01 0.498E+01 0.129E+02   -.157E+00 -.224E+00 -.168E-01
   -.467E+01 -.599E+01 -.110E+02   0.509E+01 0.614E+01 0.110E+02   -.557E-01 -.133E+00 -.611E-01
   -.403E+02 -.148E+02 0.913E+01   0.440E+02 0.146E+02 -.849E+01   -.323E+01 -.191E-01 -.531E+00
   -.149E+02 -.448E+01 -.107E+02   0.149E+02 0.512E+01 0.110E+02   -.328E+00 -.362E+00 -.326E+00
   -.282E+01 -.223E+01 -.583E+01   0.281E+01 0.218E+01 0.580E+01   -.172E+00 -.310E-01 0.303E-01
   -.140E+01 0.215E+01 -.269E+01   0.162E+01 -.224E+01 0.277E+01   -.253E-01 0.949E-01 -.721E-01
   -.224E+02 0.160E+02 0.808E+01   0.260E+02 -.165E+02 -.776E+01   -.350E+01 0.515E+00 -.338E+00
   -.239E+01 -.116E+01 0.108E+02   0.246E+01 0.822E+00 -.110E+02   -.192E+00 0.291E+00 0.169E+00
   -.153E+01 0.421E+01 -.661E+01   0.153E+01 -.451E+01 0.662E+01   -.174E+00 0.257E+00 -.230E-01
   -.499E+01 0.295E+01 -.890E+01   0.539E+01 -.329E+01 0.892E+01   -.343E+00 0.264E+00 -.268E-01
   -.109E+02 0.264E+01 -.112E+02   0.112E+02 -.240E+01 0.111E+02   -.359E+00 -.125E+00 0.777E-01
   -.872E+01 0.642E+01 -.810E+01   0.908E+01 -.651E+01 0.816E+01   -.405E+00 0.184E-02 -.844E-01
   0.148E+01 0.396E+01 -.972E+01   -.147E+01 -.400E+01 0.975E+01   -.332E-01 0.586E-01 -.323E-01
   0.179E+02 -.366E+02 -.208E+02   -.828E+01 0.538E+02 0.206E+02   -.940E+01 -.164E+02 0.337E+00
   -.179E+02 -.366E+02 -.209E+02   0.829E+01 0.538E+02 0.206E+02   0.941E+01 -.164E+02 0.333E+00
   -.198E+02 -.564E+02 0.875E+02   0.335E+02 0.591E+02 -.905E+02   -.123E+02 -.152E+01 0.269E+01
   0.197E+02 -.564E+02 0.874E+02   -.334E+02 0.591E+02 -.905E+02   0.123E+02 -.152E+01 0.269E+01
   -.388E+02 0.807E+02 0.473E+02   0.496E+02 -.992E+02 -.502E+02   -.982E+01 0.172E+02 0.262E+01
   0.389E+02 0.807E+02 0.473E+02   -.497E+02 -.992E+02 -.503E+02   0.983E+01 0.172E+02 0.262E+01
   0.665E-01 -.313E+02 0.602E+02   -.657E-01 0.280E+02 -.587E+02   -.245E-02 0.809E+00 -.109E+01
   0.445E-02 -.435E+02 0.216E+03   -.631E-02 0.459E+02 -.211E+03   0.281E-03 -.631E+00 -.573E+01
 -----------------------------------------------------------------------------------------------
   0.245E-02 0.744E+00 -.395E+00   0.172E-12 -.711E-13 0.114E-12   -.119E-02 -.558E+00 -.380E+00
 
 
 POSITION                                       TOTAL-FORCE (eV/Angst)
 -----------------------------------------------------------------------------------
      2.81408     12.46746     10.09404         0.086945     -0.052624     -0.002960
      0.70326      1.24838     10.09716         0.048983     -0.049394     -0.003754
      1.39430     12.46811     10.08986        -0.064271      0.027705     -0.002082
      3.52096      1.23229     10.11019         0.024506      0.037504     -0.003373
      2.85025      2.48844     10.09023        -0.027169     -0.079435     -0.001234
      0.70779      3.74153     10.07937         0.166475      0.145011     -0.024940
      1.41631      2.49801     10.09129        -0.004132      0.012465     -0.000007
      3.60887      3.71507     10.04683         0.363605      0.028923     -0.042251
      2.87918      4.96407     10.00798         0.287211      0.266566     -0.050510
      0.71425      6.22772     10.02260         0.190350     -0.081101     -0.005394
      1.43858      4.97771     10.04494        -0.363869     -0.002758     -0.017631
      3.59087      6.21145      9.87783        -0.243779     -0.202511      0.071000
      2.88431      7.48606      9.91828         0.137233     -0.040752      0.005907
      0.70830      8.71160     10.02656         0.185850     -0.027355     -0.014012
      1.44254      7.47624      9.99484        -0.203390      0.016287      0.006172
      3.59539      8.74741      9.91689         0.063172      0.038894     -0.042556
      2.84143      9.97106     10.01914         0.069771     -0.078297     -0.037263
      0.70217     11.21224     10.07397         0.018957      0.028039      0.002121
      1.41155      9.96020     10.04530        -0.037387     -0.071588     -0.005389
      3.51861     11.22968     10.06084         0.027082      0.101778      0.000975
      7.05500     -0.00449     10.12395        -0.052296      0.068881     -0.003472
      4.93898      1.22685     10.13317         0.038008     -0.063465     -0.025390
      5.64760     -0.00447     10.12391         0.052440      0.068393     -0.003456
      7.76365      1.22685     10.13325        -0.035788     -0.066499     -0.025617
      7.06628      2.44998     10.11392         0.037648      0.174297     -0.081508
      5.63642      2.45004     10.11387        -0.039165      0.167117     -0.081364
      7.06857     10.02334      9.95671        -0.130544      0.127909      0.001528
      4.93987     11.24488     10.06412         0.046267     -0.157282     -0.025879
      5.63437     10.02335      9.95668         0.129832      0.129863      0.002141
      7.76306     11.24481     10.06418        -0.042750     -0.155119     -0.025855
     11.30871     12.46808     10.08998         0.063129      0.029875     -0.002394
      9.18171      1.23224     10.11031        -0.026992      0.040722     -0.003523
      9.88887     12.46750     10.09417        -0.083369     -0.058569     -0.003281
     11.99944      1.24838     10.09720        -0.049952     -0.051124     -0.003719
     11.28643      2.49798     10.09134         0.001987      0.013729      0.000021
      9.09382      3.71499     10.04698        -0.363297      0.033385     -0.042632
      9.85245      2.48842     10.09032         0.027160     -0.080581     -0.000889
     11.99494      3.74153     10.07937        -0.165880      0.143542     -0.024657
     11.26417      4.97766     10.04496         0.364795      0.000720     -0.016902
      9.11198      6.21149      9.87799         0.243442     -0.206752      0.071043
      9.82364      4.96410     10.00815        -0.290356      0.265295     -0.051376
     11.98852      6.22780     10.02264        -0.188856     -0.087203     -0.005087
     11.26031      7.47620      9.99498         0.200667      0.019224      0.005808
      9.10742      8.74739      9.91708        -0.056853      0.039461     -0.043125
      9.81849      7.48597      9.91848        -0.136028     -0.036936      0.005642
     11.99455      8.71165     10.02664        -0.184373     -0.031878     -0.014091
     11.29140      9.96014     10.04544         0.034199     -0.067337     -0.005485
      9.18439     11.22960     10.06092        -0.031259      0.108196      0.001831
      9.86144      9.97110     10.01931        -0.066446     -0.085273     -0.037455
     12.00078     11.21222     10.07404        -0.018743      0.027605      0.001953
      5.00216      3.67486     10.03967        -0.605750     -0.653427      0.111642
      7.70053      3.67497     10.03983         0.608920     -0.660336      0.111520
      4.91416      6.20798      9.68754         0.326625      1.038108     -0.170920
      7.78858      6.20789      9.68766        -0.324615      1.038380     -0.170542
      4.98314      8.81351      9.81561         0.120907      0.131583     -0.084235
      7.71985      8.81344      9.81561        -0.126998      0.133378     -0.084056
      6.35148      5.04378      9.81537        -0.000545     -1.688025      0.149145
      6.35148      7.34008      9.23733        -0.001316      0.332789      0.741817
 -----------------------------------------------------------------------------------
    total drift:                                0.001879      0.002311      0.010663


--------------------------------------------------------------------------------------------------------



  FREE ENERGIE OF THE ION-ELECTRON SYSTEM (eV)
  ---------------------------------------------------
  free  energy   TOTEN  =      -610.92097555 eV

  energy  without entropy=     -610.92097538  energy(sigma->0) =     -610.92097546
 


--------------------------------------------------------------------------------------------------------


    POTLOK:  cpu time    1.9917: real time    1.9985


--------------------------------------------------------------------------------------------------------


 stress matrix after NEB project (eV)
    -45.89672     -0.02975      0.00033
     -0.02976    -45.17633     -0.57215
      0.00020     -0.57178     -0.91020
  FORCES: max atom, RMS     1.694601    0.403959
  FORCE total and by dimension    3.076457    1.688025
  Stress total and by dimension   64.411911   45.896721
 writing wavefunctions
     LOOP+:  cpu time 9726.7309: real time 9764.2641
    4ORBIT:  cpu time    0.0000: real time    0.0000
 


 total charge     
 
# of ion       s       p       d       tot
------------------------------------------
    1        0.866   1.784   0.000   2.650
    2        0.863   1.760   0.000   2.624
    3        0.866   1.766   0.000   2.631
    4        0.869   1.774   0.000   2.643
    5        0.863   1.764   0.000   2.628
    6        0.862   1.759   0.000   2.621
    7        0.863   1.755   0.000   2.617
    8        0.852   1.702   0.000   2.554
    9        0.856   1.759   0.000   2.615
   10        0.855   1.736   0.000   2.592
   11        0.859   1.741   0.000   2.600
   12        0.862   1.721   0.000   2.583
   13        0.853   1.746   0.000   2.599
   14        0.861   1.758   0.000   2.619
   15        0.858   1.737   0.000   2.595
   16        0.852   1.702   0.000   2.554
   17        0.863   1.765   0.000   2.628
   18        0.864   1.762   0.000   2.626
   19        0.863   1.755   0.000   2.618
   20        0.868   1.772   0.000   2.640
   21        0.870   1.802   0.000   2.671
   22        0.872   1.799   0.000   2.671
   23        0.870   1.802   0.000   2.671
   24        0.872   1.799   0.000   2.671
   25        0.867   1.762   0.000   2.628
   26        0.867   1.762   0.000   2.628
   27        0.864   1.760   0.000   2.624
   28        0.872   1.796   0.000   2.669
   29        0.864   1.760   0.000   2.624
   30        0.872   1.796   0.000   2.669
   31        0.865   1.766   0.000   2.631
   32        0.869   1.774   0.000   2.643
   33        0.866   1.784   0.000   2.650
   34        0.863   1.760   0.000   2.624
   35        0.863   1.755   0.000   2.617
   36        0.852   1.702   0.000   2.554
   37        0.863   1.764   0.000   2.628
   38        0.862   1.759   0.000   2.621
   39        0.859   1.741   0.000   2.600
   40        0.862   1.721   0.000   2.583
   41        0.856   1.759   0.000   2.615
   42        0.855   1.736   0.000   2.592
   43        0.858   1.737   0.000   2.595
   44        0.852   1.702   0.000   2.554
   45        0.853   1.746   0.000   2.599
   46        0.861   1.758   0.000   2.619
   47        0.863   1.755   0.000   2.618
   48        0.868   1.772   0.000   2.640
   49        0.863   1.765   0.000   2.628
   50        0.864   1.762   0.000   2.626
   51        1.230   2.654   0.000   3.884
   52        1.230   2.654   0.000   3.883
   53        1.252   2.623   0.000   3.875
   54        1.252   2.623   0.000   3.875
   55        1.231   2.664   0.000   3.896
   56        1.231   2.664   0.000   3.896
   57        0.479   0.706   6.341   7.526
   58        0.506   0.900   2.798   4.205
--------------------------------------------------
tot         51.538 105.361   9.138 166.037
 


 magnetization (x)
 
# of ion       s       p       d       tot
------------------------------------------
    1       -0.000  -0.003   0.000  -0.003
    2       -0.000  -0.003   0.000  -0.003
    3        0.000   0.003   0.000   0.003
    4        0.000   0.003   0.000   0.003
    5       -0.000  -0.002   0.000  -0.002
    6       -0.000  -0.003   0.000  -0.003
    7        0.000   0.002   0.000   0.002
    8        0.000   0.002   0.000   0.002
    9       -0.000   0.000   0.000   0.000
   10        0.000   0.002   0.000   0.002
   11        0.000   0.002   0.000   0.002
   12       -0.000  -0.002   0.000  -0.002
   13        0.000   0.005   0.000   0.005
   14       -0.000  -0.003   0.000  -0.003
   15       -0.000  -0.000   0.000  -0.000
   16        0.000   0.004   0.000   0.004
   17       -0.000  -0.004   0.000  -0.004
   18       -0.000  -0.002   0.000  -0.002
   19        0.000   0.002   0.000   0.003
   20        0.000   0.003   0.000   0.004
   21       -0.000  -0.001   0.000  -0.001
   22       -0.000  -0.001   0.000  -0.001
   23        0.000   0.001   0.000   0.002
   24        0.000   0.001   0.000   0.001
   25        0.000   0.001   0.000   0.001
   26       -0.000  -0.001   0.000  -0.001
   27       -0.000  -0.005   0.000  -0.005
   28       -0.000  -0.001   0.000  -0.002
   29        0.000   0.005   0.000   0.005
   30        0.000   0.002   0.000   0.002
   31       -0.000  -0.003   0.000  -0.003
   32       -0.000  -0.003   0.000  -0.003
   33        0.000   0.003   0.000   0.003
   34        0.000   0.003   0.000   0.003
   35       -0.000  -0.002   0.000  -0.002
   36       -0.000  -0.001   0.000  -0.001
   37        0.000   0.002   0.000   0.002
   38        0.000   0.003   0.000   0.003
   39       -0.000  -0.002   0.000  -0.002
   40        0.000   0.002   0.000   0.002
   41        0.000  -0.000   0.000  -0.000
   42       -0.000  -0.002   0.000  -0.002
   43        0.000   0.000   0.000   0.000
   44       -0.000  -0.004   0.000  -0.004
   45       -0.000  -0.004   0.000  -0.004
   46        0.000   0.003   0.000   0.003
   47       -0.000  -0.002   0.000  -0.003
   48       -0.000  -0.004   0.000  -0.004
   49        0.000   0.004   0.000   0.004
   50        0.000   0.002   0.000   0.002
   51        0.001   0.003   0.000   0.004
   52       -0.001  -0.003   0.000  -0.003
   53        0.000   0.011   0.000   0.011
   54       -0.000  -0.010   0.000  -0.010
   55       -0.000  -0.001   0.000  -0.001
   56        0.000   0.002   0.000   0.002
   57        0.000  -0.000   0.001   0.001
   58       -0.000  -0.000  -0.007  -0.008
--------------------------------------------------
tot          0.000   0.004  -0.006  -0.002
 

 total amount of memory used by VASP MPI-rank0   168077. kBytes
=======================================================================

   base      :      30000. kBytes
   nonl-proj :       4257. kBytes
   fftplans  :      11848. kBytes
   grid      :      31266. kBytes
   one-center:         62. kBytes
   HF        :         23. kBytes
   nonlr-proj:      28929. kBytes
   wavefun   :      61692. kBytes
 
  
  
 General timing and accounting informations for this job:
 ========================================================
  
                  Total CPU time used (sec):     9761.641
                            User time (sec):     9726.965
                          System time (sec):       34.675
                         Elapsed time (sec):     9805.936
  
                   Maximum memory used (kb):      395828.
                   Average memory used (kb):           0.
  
                          Minor page faults:       907257
                          Major page faults:          189
                 Voluntary context switches:       167434
