 vasp.5.4.4.18Apr17-6-g9f103f2a35 (build Feb 25 2019 10:51:38) complex          
  
 executed on             LinuxIFC date 2021.06.16  07:35:39
 running on   80 total cores
 distrk:  each k-point on   40 cores,    2 groups
 distr:  one band on NCORES_PER_BAND=  40 cores,    1 groups


--------------------------------------------------------------------------------------------------------


 INCAR:
 POTCAR:    PAW_PBE C 08Apr2002                   
 POTCAR:    PAW_PBE N 08Apr2002                   
 POTCAR:    PAW_PBE Fe 06Sep2000                  
 POTCAR:    PAW_PBE Mn 06Sep2000                  

 ----------------------------------------------------------------------------- 
|                                                                             |
|           W    W    AA    RRRRR   N    N  II  N    N   GGGG   !!!           |
|           W    W   A  A   R    R  NN   N  II  NN   N  G    G  !!!           |
|           W    W  A    A  R    R  N N  N  II  N N  N  G       !!!           |
|           W WW W  AAAAAA  RRRRR   N  N N  II  N  N N  G  GGG   !            |
|           WW  WW  A    A  R   R   N   NN  II  N   NN  G    G                |
|           W    W  A    A  R    R  N    N  II  N    N   GGGG   !!!           |
|                                                                             |
|      For optimal performance we recommend to set                            |
|        NCORE= 4 - approx SQRT( number of cores)                             |
|      NCORE specifies how many cores store one orbital (NPAR=cpu/NCORE).     |
|      This setting can  greatly improve the performance of VASP for DFT.     |
|      The default,   NCORE=1            might be grossly inefficient         |
|      on modern multi-core architectures or massively parallel machines.     |
|      Do your own testing !!!!                                               |
|      Unfortunately you need to use the default for GW and RPA calculations. |
|      (for HF NCORE is supported but not extensively tested yet)             |
|                                                                             |
 ----------------------------------------------------------------------------- 


 ----------------------------------------------------------------------------- 
|                                                                             |
|           W    W    AA    RRRRR   N    N  II  N    N   GGGG   !!!           |
|           W    W   A  A   R    R  NN   N  II  NN   N  G    G  !!!           |
|           W    W  A    A  R    R  N N  N  II  N N  N  G       !!!           |
|           W WW W  AAAAAA  RRRRR   N  N N  II  N  N N  G  GGG   !            |
|           WW  WW  A    A  R   R   N   NN  II  N   NN  G    G                |
|           W    W  A    A  R    R  N    N  II  N    N   GGGG   !!!           |
|                                                                             |
|      You have enabled k-point parallelism (KPAR>1).                         |
|      This developmental code was originally  written by Paul Kent at ORNL,  |
|      and carefully double checked in Vienna.                                |
|      GW as well as linear response parallelism added by Martijn Marsman     |
|      and Georg Kresse.                                                      |
|      Carefully verify results versus KPAR=1.                                |
|      Report problems to Paul Kent and Vienna.                               |
|                                                                             |
 ----------------------------------------------------------------------------- 

 POTCAR:    PAW_PBE C 08Apr2002                   
   VRHFIN =C: s2p2                                                              
   LEXCH  = PE                                                                  
   EATOM  =   147.1560 eV,   10.8157 Ry                                         
                                                                                
   TITEL  = PAW_PBE C 08Apr2002                                                 
   LULTRA =        F    use ultrasoft PP ?                                      
   IUNSCR =        1    unscreen: 0-lin 1-nonlin 2-no                           
   RPACOR =    1.200    partial core radius                                     
   POMASS =   12.011; ZVAL   =    4.000    mass and valenz                      
   RCORE  =    1.500    outmost cutoff radius                                   
   RWIGS  =    1.630; RWIGS  =    0.863    wigner-seitz radius (au A)           
   ENMAX  =  400.000; ENMIN  =  300.000 eV                                      
   ICORE  =        2    local potential                                         
   LCOR   =        T    correct aug charges                                     
   LPAW   =        T    paw PP                                                  
   EAUG   =  644.873                                                            
   DEXC   =    0.000                                                            
   RMAX   =    1.529    core radius for proj-oper                               
   RAUG   =    1.300    factor for augmentation sphere                          
   RDEP   =    1.501    radius for radial grids                                 
   RDEPT  =    1.300    core radius for aug-charge                              
                                                                                
   Atomic configuration                                                         
    4 entries                                                                   
     n  l   j            E        occ.                                          
     1  0  0.50      -273.3789   2.0000                                         
     2  0  0.50       -13.7508   2.0000                                         
     2  1  0.50        -5.2854   2.0000                                         
     3  2  1.50        -5.4423   0.0000                                         
   Description                                                                  
     l       E           TYP  RCUT    TYP  RCUT                                 
     0    -13.7508458     23  1.200                                             
     0     -8.2022199     23  1.200                                             
     1     -5.2854383     23  1.500                                             
     1     34.0145650     23  1.500                                             
     2     -5.4423304      7  1.500                                             
  local pseudopotential read in
  partial core-charges read in
  partial kinetic energy density read in
  atomic valenz-charges read in
  non local Contribution for L=           0  read in
    real space projection operators read in
  non local Contribution for L=           0  read in
    real space projection operators read in
  non local Contribution for L=           1  read in
    real space projection operators read in
  non local Contribution for L=           1  read in
    real space projection operators read in
    PAW grid and wavefunctions read in
 
   number of l-projection  operators is LMAX  =           4
   number of lm-projection operators is LMMAX =           8
 
 POTCAR:    PAW_PBE N 08Apr2002                   
   VRHFIN =N: s2p3                                                              
   LEXCH  = PE                                                                  
   EATOM  =   264.5486 eV,   19.4438 Ry                                         
                                                                                
   TITEL  = PAW_PBE N 08Apr2002                                                 
   LULTRA =        F    use ultrasoft PP ?                                      
   IUNSCR =        1    unscreen: 0-lin 1-nonlin 2-no                           
   RPACOR =    1.200    partial core radius                                     
   POMASS =   14.001; ZVAL   =    5.000    mass and valenz                      
   RCORE  =    1.500    outmost cutoff radius                                   
   RWIGS  =    1.400; RWIGS  =    0.741    wigner-seitz radius (au A)           
   ENMAX  =  400.000; ENMIN  =  300.000 eV                                      
   ICORE  =        2    local potential                                         
   LCOR   =        T    correct aug charges                                     
   LPAW   =        T    paw PP                                                  
   EAUG   =  627.112                                                            
   DEXC   =    0.000                                                            
   RMAX   =    1.529    core radius for proj-oper                               
   RAUG   =    1.300    factor for augmentation sphere                          
   RDEP   =    1.514    radius for radial grids                                 
   RDEPT  =    1.338    core radius for aug-charge                              
                                                                                
   Atomic configuration                                                         
    4 entries                                                                   
     n  l   j            E        occ.                                          
     1  0  0.50      -384.7179   2.0000                                         
     2  0  0.50       -18.5828   2.0000                                         
     2  1  0.50        -7.0898   3.0000                                         
     3  2  1.50        -6.8029   0.0000                                         
   Description                                                                  
     l       E           TYP  RCUT    TYP  RCUT                                 
     0    -18.5828119     23  1.200                                             
     0    -13.5018863     23  1.200                                             
     1     -7.0897853     23  1.500                                             
     1      9.5240782     23  1.500                                             
     2     -6.8029130      7  1.500                                             
  local pseudopotential read in
  partial core-charges read in
  partial kinetic energy density read in
  atomic valenz-charges read in
  non local Contribution for L=           0  read in
    real space projection operators read in
  non local Contribution for L=           0  read in
    real space projection operators read in
  non local Contribution for L=           1  read in
    real space projection operators read in
  non local Contribution for L=           1  read in
    real space projection operators read in
    PAW grid and wavefunctions read in
 
   number of l-projection  operators is LMAX  =           4
   number of lm-projection operators is LMMAX =           8
 
 POTCAR:    PAW_PBE Fe 06Sep2000                  
   VRHFIN =Fe:  d7 s1                                                           
   LEXCH  = PE                                                                  
   EATOM  =   594.3153 eV,   43.6809 Ry                                         
                                                                                
   TITEL  = PAW_PBE Fe 06Sep2000                                                
   LULTRA =        F    use ultrasoft PP ?                                      
   IUNSCR =        1    unscreen: 0-lin 1-nonlin 2-no                           
   RPACOR =    2.000    partial core radius                                     
   POMASS =   55.847; ZVAL   =    8.000    mass and valenz                      
   RCORE  =    2.300    outmost cutoff radius                                   
   RWIGS  =    2.460; RWIGS  =    1.302    wigner-seitz radius (au A)           
   ENMAX  =  267.882; ENMIN  =  200.911 eV                                      
   RCLOC  =    1.701    cutoff for local pot                                    
   LCOR   =        T    correct aug charges                                     
   LPAW   =        T    paw PP                                                  
   EAUG   =  511.368                                                            
   DEXC   =    0.000                                                            
   RMAX   =    2.356    core radius for proj-oper                               
   RAUG   =    1.300    factor for augmentation sphere                          
   RDEP   =    2.442    radius for radial grids                                 
   RDEPT  =    1.890    core radius for aug-charge                              
                                                                                
   Atomic configuration                                                         
    9 entries                                                                   
     n  l   j            E        occ.                                          
     1  0  0.50     -6993.8440   2.0000                                         
     2  0  0.50      -814.6047   2.0000                                         
     2  1  1.50      -693.3689   6.0000                                         
     3  0  0.50       -89.4732   2.0000                                         
     3  1  1.50       -55.6373   6.0000                                         
     3  2  2.50        -3.8151   7.0000                                         
     4  0  0.50        -4.2551   1.0000                                         
     4  1  1.50        -3.4015   0.0000                                         
     4  3  2.50        -1.3606   0.0000                                         
   Description                                                                  
     l       E           TYP  RCUT    TYP  RCUT                                 
     2     -3.8151135     23  2.300                                             
     2     -5.1756961     23  2.300                                             
     0     -4.2550963     23  2.300                                             
     0      7.2035603     23  2.300                                             
     1     -2.7211652     23  2.300                                             
     1     18.4316424     23  2.300                                             
  local pseudopotential read in
  partial core-charges read in
  partial kinetic energy density read in
  atomic valenz-charges read in
  non local Contribution for L=           2  read in
    real space projection operators read in
  non local Contribution for L=           2  read in
    real space projection operators read in
  non local Contribution for L=           0  read in
    real space projection operators read in
  non local Contribution for L=           0  read in
    real space projection operators read in
  non local Contribution for L=           1  read in
    real space projection operators read in
  non local Contribution for L=           1  read in
    real space projection operators read in
    PAW grid and wavefunctions read in
 
   number of l-projection  operators is LMAX  =           6
   number of lm-projection operators is LMMAX =          18
 
 POTCAR:    PAW_PBE Mn 06Sep2000                  
   VRHFIN =Mn: d6 s1                                                            
   LEXCH  = PE                                                                  
   EATOM  =   416.7541 eV,   30.6306 Ry                                         
                                                                                
   TITEL  = PAW_PBE Mn 06Sep2000                                                
   LULTRA =        F    use ultrasoft PP ?                                      
   IUNSCR =        1    unscreen: 0-lin 1-nonlin 2-no                           
   RPACOR =    2.000    partial core radius                                     
   POMASS =   54.938; ZVAL   =    7.000    mass and valenz                      
   RCORE  =    2.300    outmost cutoff radius                                   
   RWIGS  =    2.500; RWIGS  =    1.323    wigner-seitz radius (au A)           
   ENMAX  =  269.864; ENMIN  =  202.398 eV                                      
   RCLOC  =    1.725    cutoff for local pot                                    
   LCOR   =        T    correct aug charges                                     
   LPAW   =        T    paw PP                                                  
   EAUG   =  500.711                                                            
   DEXC   =    0.000                                                            
   RMAX   =    2.343    core radius for proj-oper                               
   RAUG   =    1.300    factor for augmentation sphere                          
   RDEP   =    2.338    radius for radial grids                                 
   RDEPT  =    1.911    core radius for aug-charge                              
                                                                                
   Atomic configuration                                                         
    9 entries                                                                   
     n  l   j            E        occ.                                          
     1  0  0.50     -6424.8288   2.0000                                         
     2  0  0.50      -739.1154   2.0000                                         
     2  1  1.50      -625.3949   6.0000                                         
     3  0  0.50       -81.6100   2.0000                                         
     3  1  1.50       -50.4667   6.0000                                         
     3  2  2.50        -3.3745   6.0000                                         
     4  0  0.50        -4.1331   1.0000                                         
     4  1  0.50        -4.0817   0.0000                                         
     4  3  2.50        -1.3606   0.0000                                         
   Description                                                                  
     l       E           TYP  RCUT    TYP  RCUT                                 
     2     -3.3744664     23  2.300                                             
     2     -4.7350490     23  2.300                                             
     0     -4.1331408     23  2.300                                             
     0      7.6656614     23  2.300                                             
     1     -2.7211652     23  2.300                                             
     1     20.4087390     23  2.300                                             
  local pseudopotential read in
  partial core-charges read in
  partial kinetic energy density read in
  atomic valenz-charges read in
  non local Contribution for L=           2  read in
    real space projection operators read in
  non local Contribution for L=           2  read in
    real space projection operators read in
  non local Contribution for L=           0  read in
    real space projection operators read in
  non local Contribution for L=           0  read in
    real space projection operators read in
  non local Contribution for L=           1  read in
    real space projection operators read in
  non local Contribution for L=           1  read in
    real space projection operators read in
    PAW grid and wavefunctions read in
 
   number of l-projection  operators is LMAX  =           6
   number of lm-projection operators is LMMAX =          18
 

 ----------------------------------------------------------------------------- 
|                                                                             |
|  ADVICE TO THIS USER RUNNING 'VASP/VAMP'   (HEAR YOUR MASTER'S VOICE ...):  |
|                                                                             |
|      You have a (more or less) 'large supercell' and for larger cells       |
|      it might be more efficient to use real space projection opertators     |
|      So try LREAL= Auto  in the INCAR   file.                               |
|      Mind:          For very  accurate calculation you might also keep the  |
|      reciprocal projection scheme          (i.e. LREAL=.FALSE.)             |
|                                                                             |
 ----------------------------------------------------------------------------- 

  PAW_PBE C 08Apr2002                   :
 energy of atom  1       EATOM= -147.1560
 kinetic energy error for atom=    0.0076 (will be added to EATOM!!)
  PAW_PBE N 08Apr2002                   :
 energy of atom  2       EATOM= -264.5486
 kinetic energy error for atom=    0.0138 (will be added to EATOM!!)
  PAW_PBE Fe 06Sep2000                  :
 energy of atom  3       EATOM= -594.3153
 kinetic energy error for atom=    0.0026 (will be added to EATOM!!)
  PAW_PBE Mn 06Sep2000                  :
 energy of atom  4       EATOM= -416.7541
 kinetic energy error for atom=    0.0024 (will be added to EATOM!!)
 
 
 POSCAR:  C  N Fe Mn                             
  positions in cartesian coordinates
  No initial velocities read in
 exchange correlation table for  LEXCH =        8
   RHO(1)=    0.500       N(1)  =     2000
   RHO(2)=  100.500       N(2)  =     4000

 VTST: version 3.2, (02/03/18)

 CHAIN: initializing optimizer
 
 OPT: Using VASP Conjugate-Gradient optimizer
 CHAIN: Read ICHAIN            0
 
 POSCAR:  C  N Fe Mn                             
  positions in cartesian coordinates
  No initial velocities read in
 


--------------------------------------------------------------------------------------------------------


 ion  position               nearest neighbor table
   1  0.228  0.001  0.500-   3 1.46  18 1.46   4 1.46
   2  0.058  0.100  0.500-   7 1.42   3 1.43  33 1.45
   3  0.116  0.000  0.500-  16 1.43   2 1.43   1 1.46
   4  0.283  0.105  0.500-  20 1.46   5 1.46   1 1.46
   5  0.223  0.206  0.500-  50 1.38   7 1.45   4 1.46
   6  0.051  0.299  0.500-  10 1.41  37 1.42   7 1.43
   7  0.111  0.201  0.500-   2 1.42   6 1.43   5 1.45
   8  0.210  0.400  0.500-  50 1.38  10 1.40  11 1.41
   9  0.048  0.500  0.500-  41 1.41  10 1.42  14 1.42
  10  0.102  0.400  0.500-   8 1.40   6 1.41   9 1.42
  11  0.263  0.500  0.499-  54 1.35   8 1.41  12 1.41
  12  0.209  0.600  0.500-  51 1.39  14 1.39  11 1.41
  13  0.051  0.701  0.500-  14 1.41  45 1.42  17 1.44
  14  0.102  0.600  0.500-  12 1.39  13 1.41   9 1.42
  15  0.222  0.796  0.500-  51 1.39  17 1.45  18 1.46
  16  0.058  0.901  0.500-  17 1.42   3 1.43  49 1.45
  17  0.111  0.799  0.500-  16 1.42  13 1.44  15 1.45
  18  0.282  0.896  0.500-  15 1.46  28 1.46   1 1.46
  19  0.558  1.000  0.500-  22 1.42  29 1.43  21 1.44
  20  0.395  0.105  0.500-  52 1.40  21 1.45   4 1.46
  21  0.448  0.000  0.500-  19 1.44  28 1.45  20 1.45
  22  0.615  0.100  0.500-  23 1.42  19 1.42  31 1.43
  23  0.559  0.199  0.500-  52 1.39  22 1.42  24 1.44
  24  0.614  0.301  0.500-  53 1.41  35 1.42  23 1.44
  25  0.609  0.498  0.499-  53 1.39  55 1.40  39 1.45
  26  0.614  0.698  0.500-  43 1.41  55 1.41  27 1.44
  27  0.559  0.800  0.500-  56 1.39  29 1.42  26 1.44
  28  0.394  0.897  0.500-  56 1.39  21 1.45  18 1.46
  29  0.614  0.900  0.500-  27 1.42  19 1.43  47 1.43
  30  0.891  1.000  0.500-  49 1.42  33 1.42  32 1.44
  31  0.725  0.099  0.500-  36 1.41  32 1.42  22 1.43
  32  0.781  1.000  0.500-  31 1.42  47 1.42  30 1.44
  33  0.947  0.100  0.500-  30 1.42  34 1.43   2 1.45
  34  0.889  0.199  0.500-  37 1.41  33 1.43  36 1.43
  35  0.723  0.299  0.500-  24 1.42  40 1.42  36 1.43
  36  0.779  0.199  0.500-  31 1.41  35 1.43  34 1.43
  37  0.942  0.299  0.500-  34 1.41   6 1.42  38 1.43
  38  0.886  0.399  0.500-  41 1.42  40 1.42  37 1.43
  39  0.720  0.499  0.500-  40 1.43  44 1.43  25 1.45
  40  0.776  0.400  0.500-  35 1.42  38 1.42  39 1.43
  41  0.939  0.500  0.500-   9 1.41  38 1.42  42 1.42
  42  0.885  0.600  0.500-  41 1.42  44 1.42  45 1.43
  43  0.722  0.701  0.500-  26 1.41  44 1.42  48 1.43
  44  0.776  0.600  0.500-  42 1.42  43 1.42  39 1.43
  45  0.942  0.701  0.500-  46 1.41  13 1.42  42 1.43
  46  0.889  0.801  0.500-  45 1.41  49 1.43  48 1.43
  47  0.725  0.900  0.500-  48 1.41  32 1.42  29 1.43
  48  0.779  0.801  0.500-  47 1.41  43 1.43  46 1.43
  49  0.947  0.900  0.500-  30 1.42  46 1.43  16 1.45
  50  0.270  0.307  0.499-   5 1.38   8 1.38  57 1.93
  51  0.269  0.694  0.500-  15 1.39  12 1.39  58 1.97
  52  0.452  0.201  0.499-  23 1.39  20 1.40  57 1.93
  53  0.558  0.399  0.499-  25 1.39  24 1.41  57 1.98
  54  0.367  0.499  0.498-  11 1.35  58 1.88  57 1.89
  55  0.558  0.599  0.499-  25 1.40  26 1.41  58 1.97
  56  0.452  0.801  0.500-  27 1.39  28 1.39  58 1.99
  57  0.412  0.353  0.499-  54 1.89  50 1.93  52 1.93  53 1.98
  58  0.413  0.644  0.499-  54 1.88  51 1.97  55 1.97  56 1.99
 
  LATTYP: Found a triclinic cell.
 ALAT       =    17.8644213579
 B/A-ratio  =     0.6863754361
 C/A-ratio  =     1.1147072497
 COS(alpha) =     0.0001308997
 COS(beta)  =     0.0003796634
 COS(gamma) =     0.6852568444
  
  Lattice vectors:
  
 A1 = (  12.9918673882,  12.2616855376,   0.0000000000)
 A2 = (  -0.0188326118,  12.2616855376,   0.0000000000)
 A3 = (   0.0079243196,   0.0026188581,  19.9135982511)


Analysis of symmetry for initial positions (statically):
=====================================================================
 Subroutine PRICEL returns:
 Original cell was already a primitive cell.
 

 Routine SETGRP: Setting up the symmetry group for a 
 triclinic supercell.


 Subroutine GETGRP returns: Found  1 space group operations
 (whereof  1 operations were pure point group operations)
 out of a pool of  2 trial point group operations.


The static configuration has the point symmetry C_1 .


Analysis of symmetry for dynamics (positions and initial velocities):
=====================================================================
 Subroutine PRICEL returns:
 Original cell was already a primitive cell.
 

 Routine SETGRP: Setting up the symmetry group for a 
 triclinic supercell.


 Subroutine GETGRP returns: Found  1 space group operations
 (whereof  1 operations were pure point group operations)
 out of a pool of  2 trial point group operations.


The dynamic configuration has the point symmetry C_1 .


Analysis of structural, dynamic, and magnetic symmetry:
=====================================================================
 Subroutine PRICEL returns:
 Original cell was already a primitive cell.
 

 Routine SETGRP: Setting up the symmetry group for a 
 triclinic supercell.


 Subroutine GETGRP returns: Found  1 space group operations
 (whereof  1 operations were pure point group operations)
 out of a pool of  2 trial point group operations.


The magnetic configuration has the point symmetry C_1 .


 Subroutine INISYM returns: Found  1 space group operations
 (whereof  1 operations are pure point group operations),
 and found     1 'primitive' translations

 
 
 KPOINTS: KPOINTS created by Atomic Simulation Env

Automatic generation of k-mesh.
Space group operators:
 irot       det(A)        alpha          n_x          n_y          n_z        tau_x        tau_y        tau_z
    1     1.000000     0.000001     1.000000     0.000000     0.000000     0.000000     0.000000     0.000000
 
 Subroutine IBZKPT returns following result:
 ===========================================
 
 Found      2 irreducible k-points:
 
 Following reciprocal coordinates:
            Coordinates               Weight
  0.250000  0.250000  0.000000      2.000000
 -0.250000  0.250000  0.000000      2.000000
 
 Following cartesian coordinates:
            Coordinates               Weight
  0.019215  0.020418 -0.000010      2.000000
 -0.019215  0.020359  0.000005      2.000000
 
 
 Subroutine IBZKPT_HF returns following result:
 ==============================================
 
 Found      4 k-points in 1st BZ
 the following      4 k-points will be used (e.g. in the exchange kernel)
 Following reciprocal coordinates:   # in IRBZ
  0.250000  0.250000  0.000000    0.25000000   1 t-inv F
 -0.250000  0.250000  0.000000    0.25000000   2 t-inv F
 -0.250000 -0.250000  0.000000    0.25000000   1 t-inv T
  0.250000 -0.250000 -0.000000    0.25000000   2 t-inv T


--------------------------------------------------------------------------------------------------------




 Dimension of arrays:
   k-points           NKPTS =      2   k-points in BZ     NKDIM =      4   number of bands    NBANDS=    157
   number of dos      NEDOS =    301   number of ions     NIONS =     58
   non local maximal  LDIM  =      6   non local SUM 2l+1 LMDIM =     18
   total plane-waves  NPLWV = ******
   max r-space proj   IRMAX =      1   max aug-charges    IRDMAX=  15196
   dimension x,y,z NGX =    96 NGY =   90 NGZ =  150
   dimension x,y,z NGXF=   192 NGYF=  180 NGZF=  300
   support grid    NGXF=   192 NGYF=  180 NGZF=  300
   ions per type =              49   7   1   1
   NGX,Y,Z   is equivalent  to a cutoff of  12.27, 12.20, 12.52 a.u.
   NGXF,Y,Z  is equivalent  to a cutoff of  24.53, 24.40, 25.05 a.u.

 SYSTEM =  unknown system                          
 POSCAR =   C  N Fe Mn                             

 Startparameter for this run:
   NWRITE =      2    write-flag & timer
   PREC   = accura    normal or accurate (medium, high low for compatibility)
   ISTART =      1    job   : 0-new  1-cont  2-samecut
   ICHARG =      0    charge: 1-file 2-atom 10-const
   ISPIN  =      2    spin polarized calculation?
   LNONCOLLINEAR =      F non collinear calculations
   LSORBIT =      F    spin-orbit coupling
   INIWAV =      1    electr: 0-lowe 1-rand  2-diag
   LASPH  =      T    aspherical Exc in radial PAW
   METAGGA=      F    non-selfconsistent MetaGGA calc.

 Electronic Relaxation 1
   ENCUT  =  500.0 eV  36.75 Ry    6.06 a.u.  23.72 22.36 36.31*2*pi/ulx,y,z
   ENINI  =  500.0     initial cutoff
   ENAUG  =  644.9 eV  augmentation charge cutoff
   NELM   =    250;   NELMIN=  2; NELMDL=  0     # of ELM steps 
   EDIFF  = 0.1E-03   stopping-criterion for ELM
   LREAL  =      F    real-space projection
   NLSPLINE    = F    spline interpolate recip. space projectors
   LCOMPAT=      F    compatible to vasp.4.4
   GGA_COMPAT  = T    GGA compatible to vasp.4.4-vasp.4.6
   LMAXPAW     = -100 max onsite density
   LMAXMIX     =    2 max onsite mixed and CHGCAR
   VOSKOWN=      0    Vosko Wilk Nusair interpolation
   ROPT   =    0.00000   0.00000   0.00000   0.00000
 Ionic relaxation
   EDIFFG = -.3E-01   stopping-criterion for IOM
   NSW    =      0    number of steps for IOM
   NBLOCK =      1;   KBLOCK =      1    inner block; outer block 
   IBRION =     -1    ionic relax: 0-MD 1-quasi-New 2-CG
   NFREE  =      1    steps in history (QN), initial steepest desc. (CG)
   ISIF   =      2    stress and relaxation
   IWAVPR =     10    prediction:  0-non 1-charg 2-wave 3-comb
   ISYM   =      3    0-nonsym 1-usesym 2-fastsym
   LCORR  =      T    Harris-Foulkes like correction to forces

   POTIM  = 0.5000    time-step for ionic-motion
   TEIN   =    0.0    initial temperature
   TEBEG  =    0.0;   TEEND  =   0.0 temperature during run
   SMASS  =  -3.00    Nose mass-parameter (am)
   estimated Nose-frequenzy (Omega)   =  0.10E-29 period in steps =****** mass=  -0.387E-26a.u.
   SCALEE = 1.0000    scale energy and forces
   NPACO  =    256;   APACO  = 16.0  distance and # of slots for P.C.
   PSTRESS=    0.0 pullay stress

  Mass of Ions in am
   POMASS =  12.01 14.00 55.85 54.94
  Ionic Valenz
   ZVAL   =   4.00  5.00  8.00  7.00
  Atomic Wigner-Seitz radii
   RWIGS  =  -1.00 -1.00 -1.00 -1.00
  virtual crystal weights 
   VCA    =   1.00  1.00  1.00  1.00
   NELECT =     246.0000    total number of electrons
   NUPDOWN=      -1.0000    fix difference up-down

 DOS related values:
   EMIN   =  10.00;   EMAX   =-10.00  energy-range for DOS
   EFERMI =   0.00
   ISMEAR =     0;   SIGMA  =   0.10  broadening in eV -4-tet -1-fermi 0-gaus

 Electronic relaxation 2 (details)
   IALGO  =     53    algorithm
   LDIAG  =      T    sub-space diagonalisation (order eigenvalues)
   LSUBROT=      F    optimize rotation matrix (better conditioning)
   TURBO    =      0    0=normal 1=particle mesh
   IRESTART =      0    0=no restart 2=restart with 2 vectors
   NREBOOT  =      0    no. of reboots
   NMIN     =      0    reboot dimension
   EREF     =   0.00    reference energy to select bands
   IMIX   =      4    mixing-type and parameters
     AMIX     =   0.40;   BMIX     =  1.00
     AMIX_MAG =   1.60;   BMIX_MAG =  1.00
     AMIN     =   0.10
     WC   =   100.;   INIMIX=   1;  MIXPRE=   1;  MAXMIX= -45

 Intra band minimization:
   WEIMIN = 0.0000     energy-eigenvalue tresh-hold
   EBREAK =  0.16E-06  absolut break condition
   DEPER  =   0.30     relativ break condition  

   TIME   =   0.20     timestep for ELM

  volume/ion in A,a.u.               =      54.77       369.63
  Fermi-wavevector in a.u.,A,eV,Ry     =   0.697782  1.318617  6.624670  0.486900
  Thomas-Fermi vector in A             =   1.781204
 
 Write flags
   LWAVE        =      T    write WAVECAR
   LDOWNSAMPLE  =      F    k-point downsampling of WAVECAR
   LCHARG       =      T    write CHGCAR
   LVTOT        =      F    write LOCPOT, total local potential
   LVHAR        =      F    write LOCPOT, Hartree potential only
   LELF         =      F    write electronic localiz. function (ELF)
   LORBIT       =     11    0 simple, 1 ext, 2 COOP (PROOUT), +10 PAW based schemes


 Dipole corrections
   LMONO  =      F    monopole corrections only (constant potential shift)
   LDIPOL =      T    correct potential (dipole corrections)
   IDIPOL =      3    1-x, 2-y, 3-z, 4-all directions 
   EPSILON=  1.0000000 bulk dielectric constant

 Exchange correlation treatment:
   GGA     =    PE    GGA type
   LEXCH   =     8    internal setting for exchange type
   VOSKOWN=      0    Vosko Wilk Nusair interpolation
   EXXOEP  =     0    0=HF, 1=EXX-LHF (local Hartree Fock) 2=EXX OEP
   LHFCALC =     T    Hartree Fock is set to
   LSYMGRAD=     F    symmetrize gradient (conserves proper symmetry)
   PRECFOCK=normal    Normal, Fast or Accurate (Low or Medium for compatibility)
   LRHFCALC=     F    long range Hartree Fock
   LRSCOR  =     F    long range correlation only (use DFT for short range part)
   LTHOMAS =     F    Thomas Fermi screening in HF
   LMODELHF=     F    short range full HF, long range fraction AEXX
   ENCUT4O =  -1.0   cutoff for four orbital integrals eV
   LMAXFOCK=     4    L truncation for augmentation on plane wave grid
   LMAXFOCKAE=  -1    L truncation for all-electron charge restoration on plane wave grid
   NMAXFOCKAE=   1    number of basis functions for all-electron charge restoration
   LFOCKAEDFT=     F  apply the AE augmentation even for DFT
   NKREDX  =     1    reduce k-point grid by
   NKREDY  =     1    reduce k-point grid by
   NKREDZ  =     1    reduce k-point grid by
   SHIFTRED=     F    shift reduced grid of Gamma
   HFKIDENT=     F    idential grid for each k-point
   ODDONLY =     F    use only odd q-grid points
   EVENONLY=     F    use only even q-grid points
   HFALPHA =   -1.0000 decay constant for conv. correction
   MCALPHA =    0.0000 extent of test-charge in conv. correction in multipole expansion
   AEXX    =    0.2500 exact exchange contribution
   HFSCREEN=    0.2000 screening length (either q_TF or 0.3 A-1)
   HFSCREENC=   0.2000 screening length for correlation (either q_TF or 0.3 A-1)
   HFRCUT  =    0.0000 spherical cutoff for potential kernel
   ALDAX   =    0.7500 LDA exchange part
   AGGAX   =    0.7500 GGA exchange part
   ALDAC   =    1.0000 LDA correlation
   AGGAC   =    1.0000 GGA correlation
   ENCUTFOCK=  -1.0 apply spherical cutoff to Coloumb kernel
   NBANDSGWLOW=     1    first orbital included in HF term
   NBLOCK_FOCK=    64    blocking factor in FOCK_ACC
 Linear response parameters
   LEPSILON=     F    determine dielectric tensor
   LRPA    =     F    only Hartree local field effects (RPA)
   LNABLA  =     F    use nabla operator in PAW spheres
   LVEL    =     F    velocity operator in full k-point grid
   LINTERFAST=   F  fast interpolation
   KINTER  =     0    interpolate to denser k-point grid
   CSHIFT  =0.1000    complex shift for real part using Kramers Kronig
   OMEGAMAX=  -1.0    maximum frequency
   DEG_THRESHOLD= 0.2000000E-02 threshold for treating states as degnerate
   RTIME   =   -0.100 relaxation time in fs
  (WPLASMAI=    0.000 imaginary part of plasma frequency in eV, 0.658/RTIME)
   DFIELD  = 0.0000000 0.0000000 0.0000000 field for delta impulse in time
 
 Orbital magnetization related:
   ORBITALMAG=     F  switch on orbital magnetization
   LCHIMAG   =     F  perturbation theory with respect to B field
   DQ        =  0.001000  dq finite difference perturbation B field
   LLRAUG    =     F  two centre corrections for induced B field



--------------------------------------------------------------------------------------------------------


 Static calculation
 charge density and potential will be updated during run
 spin polarized calculation
 Conjugate gradient for all bands (Freysoldt, et al. PRB 79, 241103 (2009))
 perform sub-space diagonalisation
    before iterative eigenvector-optimisation
 modified Broyden-mixing scheme, WC =      100.0
 initial mixing is a Kerker type mixing with AMIX =  0.4000 and BMIX =      1.0000
 Hartree-type preconditioning will be used
 using additional bands           34
 reciprocal scheme for non local part
 use partial core corrections
 no Harris-corrections to forces 
 use gradient corrections 
 use of overlap-Matrix (Vanderbilt PP)
 Gauss-broadening in eV      SIGMA  =   0.10


--------------------------------------------------------------------------------------------------------


  energy-cutoff  :      500.00
  volume of cell :     3176.88
      direct lattice vectors                 reciprocal lattice vectors
    13.010700000  0.000000000  0.000000000     0.076859815  0.000118048 -0.000030601
    -0.018832612 12.261685538  0.000000000     0.000000000  0.081554856 -0.000010725
     0.007924320  0.002618858 19.913598251     0.000000000  0.000000000  0.050216942

  length of vectors
    13.010700000 12.261700000 19.913600000     0.076859912  0.081554857  0.050216942


 
 old parameters found on file WAVECAR:
  energy-cutoff  :      500.00
  volume of cell :     3176.88
      direct lattice vectors                 reciprocal lattice vectors
    13.010700000  0.000000000  0.000000000     0.076859815  0.000118048 -0.000030601
    -0.018832612 12.261685538  0.000000000     0.000000000  0.081554856 -0.000010725
     0.007924320  0.002618858 19.913598251     0.000000000  0.000000000  0.050216942

  length of vectors

 
 k-points in units of 2pi/SCALE and weight: KPOINTS created by Atomic Simulation Env
   0.01921495  0.02041823 -0.00001033       0.500
  -0.01921495  0.02035920  0.00000497       0.500
 
 k-points in reciprocal lattice and weights: KPOINTS created by Atomic Simulation Env
   0.25000000  0.25000000  0.00000000       0.500
  -0.25000000  0.25000000  0.00000000       0.500
 
 position of ions in fractional coordinates (direct lattice) 
   0.22782064  0.00059738  0.49979787
   0.05833038  0.09999939  0.49999126
   0.11581832  0.00032063  0.49993457
   0.28269674  0.10500470  0.49955048
   0.22307653  0.20577921  0.49951159
   0.05111746  0.29881319  0.50006521
   0.11147154  0.20121248  0.49987965
   0.20958050  0.40012531  0.49961935
   0.04778372  0.50000543  0.50031164
   0.10217968  0.40002431  0.50010507
   0.26293664  0.50020804  0.49934189
   0.20935569  0.60018025  0.49990796
   0.05089113  0.70132111  0.50015387
   0.10215894  0.60024030  0.50024522
   0.22247168  0.79551779  0.49990258
   0.05823754  0.90064976  0.50000651
   0.11129518  0.79936821  0.50003331
   0.28227155  0.89615607  0.49984321
   0.55826752  0.99978392  0.50003945
   0.39477006  0.10455612  0.49952340
   0.44780009  0.00043215  0.49986017
   0.61451206  0.09952494  0.50000015
   0.55909860  0.19911475  0.49959791
   0.61396096  0.30105805  0.49954743
   0.60899287  0.49832219  0.49947615
   0.61363580  0.69802408  0.49979695
   0.55868061  0.80031690  0.49993858
   0.39449520  0.89684675  0.49984240
   0.61438090  0.89995788  0.50012388
   0.89115482  0.99998183  0.50009293
   0.72463378  0.09913244  0.50013806
   0.78071843  0.99982568  0.50015258
   0.94696301  0.09978661  0.50010467
   0.88901874  0.19855502  0.50015394
   0.72270274  0.29875905  0.49991824
   0.77899140  0.19872734  0.50011470
   0.94197786  0.29905268  0.50016563
   0.88562455  0.39932733  0.50018146
   0.72011873  0.49930801  0.49987805
   0.77640490  0.39960202  0.50000086
   0.93939449  0.49991344  0.50026160
   0.88528869  0.60030824  0.50013566
   0.72225581  0.70054968  0.49995523
   0.77609760  0.59957710  0.49999689
   0.94187461  0.70081206  0.50009292
   0.88884837  0.80126243  0.50002618
   0.72452748  0.90037602  0.50012928
   0.77876518  0.80079028  0.50004466
   0.94682059  0.90027361  0.50002999
   0.26979006  0.30710931  0.49916805
   0.26911200  0.69397288  0.49973757
   0.45234800  0.20081319  0.49921184
   0.55764267  0.39881611  0.49914808
   0.36692927  0.49890662  0.49840409
   0.55822200  0.59869528  0.49942981
   0.45168783  0.80073057  0.49975701
   0.41167308  0.35252112  0.49855132
   0.41274477  0.64397276  0.49904099
 
 position of ions in cartesian coordinates  (Angst):
   2.96805526  0.00863379  9.95277401
   0.76099792  1.22747044  9.95662509
   1.51083295  0.00524075  9.95549612
   3.68006355  1.28884284  9.94784762
   2.90246478  2.52450815  9.94707305
   0.66340924  3.66526293  9.95809771
   1.45049463  2.46851329  9.95440252
   2.72321277  4.90751914  9.94921897
   0.61624789  6.13221964  9.96300490
   1.32585870  4.90628205  9.95889138
   3.41552640  6.13470141  9.94369377
   2.71652254  7.36053071  9.95496631
   0.65288491  8.60068876  9.95986331
   1.32181927  7.36126786  9.96168224
   2.88349206  9.75569818  9.95485920
   0.74471184 11.04479358  9.95692880
   1.43693643  9.80291110  9.95746248
   3.65963441 10.98969289  9.95367697
   7.24858515 12.26034552  9.95758479
   5.13822420  1.28334245  9.94730831
   5.83014554  0.00660790  9.95401452
   7.99731991  1.22165296  9.95680214
   7.27447328  2.44279087  9.94879214
   7.98635078  3.69278738  9.94778680
   7.91799688  6.11157806  9.94636729
   7.97464619  8.56026061  9.95275559
   7.25771538  9.81454343  9.95557611
   5.11972966 10.99816183  9.95366070
   7.98054021 11.03631024  9.95926604
  11.57967869 12.26277242  9.95864966
   9.43008902  1.21684064  9.95954839
  10.14282728 12.26085785  9.95983749
  12.32273543  1.22486175  9.95888351
  11.56698019  2.43592902  9.95986461
   9.40120368  3.66459872  9.95517109
  10.13544393  2.43804189  9.95908325
  12.25412287  3.66819979  9.96009747
  11.51903860  4.89773602  9.96041271
   9.36380662  6.12366693  9.95437068
  10.09800782  4.90110372  9.95681617
  12.21672951  6.13109154  9.96200857
  11.51088345  7.36210062  9.95950056
   9.38782226  8.59122915  9.95590758
  10.09024361  7.35313529  9.95673721
  12.24521273  8.59444678  9.95864940
  11.55341198  9.82613748  9.95732041
   9.41361645 11.04143742  9.95937351
  10.12116162  9.82034813  9.95768839
  12.30580649 11.04018138  9.95739626
   3.50832938  3.76698504  9.94023201
   3.49222627  8.51058599  9.95157314
   5.88553821  2.46361555  9.94110405
   7.25176612  4.89146491  9.93983442
   4.76856045  6.11874138  9.92501887
   7.25554165  7.34232123  9.94544468
   5.86565525  9.81961528  9.95196033
   5.35346667  4.32380880  9.92795077
   5.36192527  7.89749836  9.93770183
 


--------------------------------------------------------------------------------------------------------


 k-point  1 :   0.2500 0.2500 0.0000  plane waves:   80652
 k-point  2 :  -0.2500 0.2500 0.0000  plane waves:   80684

 maximum and minimum number of plane-waves per node :      2044     1991

 maximum number of plane-waves:     80684
 maximum index in each direction: 
   IXMAX=   23   IYMAX=   22   IZMAX=   36
   IXMIN=  -23   IYMIN=  -22   IZMIN=  -36


 parallel 3D FFT for wavefunctions:
    minimum data exchange during FFTs selected (reduces bandwidth)
 parallel 3D FFT for charge:
    minimum data exchange during FFTs selected (reduces bandwidth)


 FFT grid for exact exchange (Hartree Fock) 
  NGX = 72; NGY = 70; NGZ =112

 
 Radii for the augmentation spheres in the non-local exchange
 for species   1 augmentation radius   0.874 (default was   0.699)
       energy cutoff for augmentation   2000.0
 for species   2 augmentation radius   0.886 (default was   0.709)
       energy cutoff for augmentation   2000.0
 for species   3 augmentation radius   1.263 (default was   1.010)
       energy cutoff for augmentation   2000.0
 for species   4 augmentation radius   1.276 (default was   1.021)
       energy cutoff for augmentation   2000.0

 real space projection operators:
  total allocation   :       2518.24 KBytes
  max/ min on nodes  :        111.75         17.72

 Maximum index for augmentation-charges in exchange           78
  SETUP_FOCK is finished

 total amount of memory used by VASP MPI-rank0   139136. kBytes
=======================================================================

   base      :      30000. kBytes
   nonl-proj :       4268. kBytes
   fftplans  :      11188. kBytes
   grid      :      29312. kBytes
   one-center:         62. kBytes
   HF        :         23. kBytes
   nonlr-proj:       1646. kBytes
   wavefun   :      62637. kBytes
 
     INWAV:  cpu time    3.0155: real time    5.5390
 Broyden mixing: mesh for mixing (old mesh)
   NGX = 47   NGY = 45   NGZ = 73
  (NGX  =192   NGY  =180   NGZ  =300)
  gives a total of 154395 points

 charge density for first step will be calculated from the start-wavefunctions


--------------------------------------------------------------------------------------------------------


 Maximum index for augmentation-charges          722 (set IRDMAX)


--------------------------------------------------------------------------------------------------------


 initial charge from wavefunction
 First call to EWALD:  gamma=   0.121
 Maximum number of real-space cells 3x 3x 2
 Maximum number of reciprocal cells 2x 2x 4

    FEWALD:  cpu time    0.0043: real time    0.0044


--------------------------------------- Iteration      1(   1)  ---------------------------------------


    POTLOK:  cpu time    1.0177: real time    1.0219
    SETDIJ:  cpu time    1.2358: real time    1.2414
    TRIAL :  cpu time  196.2452: real time  196.9090
    CORREC:  cpu time    0.0011: real time    0.0011
    CHARGE:  cpu time    0.9072: real time    0.9095
    --------------------------------------------
      LOOP:  cpu time  199.4289: real time  200.1457

 eigenvalue-minimisations  :     0
 total energy-change (2. order) :-0.6125212E+03  (-0.4721824E+00)
 number of electron     246.0000021 magnetization       5.9909377
 augmentation part       13.5210718 magnetization       3.8193462

 DIPCOR: dipole corrections for dipol
 direction  3 min pos     1,
 dipolmoment           0.000001      0.000000      0.001641 electrons x Angstroem
 Tr[quadrupol]     -6597.305223

 energy correction for charged system         0.000000 eV
 dipol+quadrupol energy correction            0.000000 eV
 added-field ion interaction          0.000000 eV  (added to PSCEN)


 Free energy of the ion-electron system (eV)
  ---------------------------------------------------
  alpha Z        PSCENC =       102.39950845
  Ewald energy   TEWEN  =     39637.52357027
  -Hartree energ DENC   =    -48243.29846009
  -exchange      EXHF   =       563.20394898
  -V(xc)+E(xc)   XCENC  =       620.92170870
  PAW double counting   =     26512.12356951   -26540.81880981
  entropy T*S    EENTRO =        -0.00748491
  eigenvalues    EBANDS =     -3221.70818203
  atomic energy  EATOM  =      9957.14373623
  ---------------------------------------------------
  free energy    TOTEN  =      -612.52120677 eV

  energy without entropy =     -612.51372186  energy(sigma->0) =     -612.51746431
  exchange ACFDT corr.  =        -0.01011261  see jH, gK, PRB 81, 115126


--------------------------------------------------------------------------------------------------------




--------------------------------------- Iteration      1(   2)  ---------------------------------------


    POTLOK:  cpu time    1.0264: real time    1.0292
    SETDIJ:  cpu time    1.2185: real time    1.2240
    TRIAL :  cpu time  195.6805: real time  196.3402
    CORREC:  cpu time    0.0025: real time    0.0025
    CHARGE:  cpu time    0.9134: real time    0.9172
    --------------------------------------------
      LOOP:  cpu time  198.8454: real time  199.5193

 eigenvalue-minimisations  :     0
 total energy-change (2. order) :-0.3823759E+00  (-0.4019650E+00)
 number of electron     246.0000021 magnetization       5.9974330
 augmentation part       13.4974133 magnetization       3.8855547

 DIPCOR: dipole corrections for dipol
 direction  3 min pos     1,
 dipolmoment           0.000001      0.000000      0.001470 electrons x Angstroem
 Tr[quadrupol]     -6597.127056

 energy correction for charged system         0.000000 eV
 dipol+quadrupol energy correction            0.000000 eV
 added-field ion interaction          0.000000 eV  (added to PSCEN)


 Free energy of the ion-electron system (eV)
  ---------------------------------------------------
  alpha Z        PSCENC =       102.39950843
  Ewald energy   TEWEN  =     39637.52357027
  -Hartree energ DENC   =    -48228.27169894
  -exchange      EXHF   =       563.13299924
  -V(xc)+E(xc)   XCENC  =       620.60737700
  PAW double counting   =     26654.92715963   -26683.40421733
  entropy T*S    EENTRO =        -0.00411315
  eigenvalues    EBANDS =     -3236.95453231
  atomic energy  EATOM  =      9957.14373623
  ---------------------------------------------------
  free energy    TOTEN  =      -612.90358266 eV

  energy without entropy =     -612.89946951  energy(sigma->0) =     -612.90152609
  exchange ACFDT corr.  =        -0.00921182  see jH, gK, PRB 81, 115126


--------------------------------------------------------------------------------------------------------




--------------------------------------- Iteration      1(   3)  ---------------------------------------


    POTLOK:  cpu time    1.0357: real time    1.0387
    SETDIJ:  cpu time    1.2271: real time    1.2336
    TRIAL :  cpu time  195.8808: real time  196.5117
    CORREC:  cpu time    0.0011: real time    0.0011
    CHARGE:  cpu time    0.9023: real time    0.9046
    --------------------------------------------
      LOOP:  cpu time  199.0478: real time  199.6958

 eigenvalue-minimisations  :     0
 total energy-change (2. order) :-0.3137968E+00  (-0.2353408E+00)
 number of electron     246.0000021 magnetization       5.9993469
 augmentation part       13.4881718 magnetization       3.9388394

 DIPCOR: dipole corrections for dipol
 direction  3 min pos     1,
 dipolmoment           0.000001      0.000000      0.001420 electrons x Angstroem
 Tr[quadrupol]     -6596.952053

 energy correction for charged system         0.000000 eV
 dipol+quadrupol energy correction            0.000000 eV
 added-field ion interaction          0.000000 eV  (added to PSCEN)


 Free energy of the ion-electron system (eV)
  ---------------------------------------------------
  alpha Z        PSCENC =       102.39950843
  Ewald energy   TEWEN  =     39637.52357027
  -Hartree energ DENC   =    -48212.77911689
  -exchange      EXHF   =       563.10343901
  -V(xc)+E(xc)   XCENC  =       620.27734402
  PAW double counting   =     26839.58090787   -26867.90262219
  entropy T*S    EENTRO =        -0.00214803
  eigenvalues    EBANDS =     -3252.56003310
  atomic energy  EATOM  =      9957.14373623
  ---------------------------------------------------
  free energy    TOTEN  =      -613.21737950 eV

  energy without entropy =     -613.21523147  energy(sigma->0) =     -613.21630548
  exchange ACFDT corr.  =        -0.00459818  see jH, gK, PRB 81, 115126


--------------------------------------------------------------------------------------------------------




--------------------------------------- Iteration      1(   4)  ---------------------------------------


    POTLOK:  cpu time    1.1716: real time    1.1834
    SETDIJ:  cpu time    1.2253: real time    1.2310
    TRIAL :  cpu time  195.9156: real time  196.5443
    CORREC:  cpu time    0.0011: real time    0.0011
    CHARGE:  cpu time    0.9005: real time    0.9029
    --------------------------------------------
      LOOP:  cpu time  199.2154: real time  199.8684

 eigenvalue-minimisations  :     0
 total energy-change (2. order) :-0.1809114E+00  (-0.1339038E+00)
 number of electron     246.0000021 magnetization       5.9998450
 augmentation part       13.4864096 magnetization       3.9719525

 DIPCOR: dipole corrections for dipol
 direction  3 min pos     1,
 dipolmoment           0.000001      0.000000      0.001529 electrons x Angstroem
 Tr[quadrupol]     -6596.879978

 energy correction for charged system         0.000000 eV
 dipol+quadrupol energy correction            0.000000 eV
 added-field ion interaction          0.000000 eV  (added to PSCEN)


 Free energy of the ion-electron system (eV)
  ---------------------------------------------------
  alpha Z        PSCENC =       102.39950844
  Ewald energy   TEWEN  =     39637.52357027
  -Hartree energ DENC   =    -48205.34831652
  -exchange      EXHF   =       563.24356925
  -V(xc)+E(xc)   XCENC  =       620.14562632
  PAW double counting   =     26996.35569760   -27024.64682412
  entropy T*S    EENTRO =        -0.00102583
  eigenvalues    EBANDS =     -3260.21271037
  atomic energy  EATOM  =      9957.14373623
  ---------------------------------------------------
  free energy    TOTEN  =      -613.39829092 eV

  energy without entropy =     -613.39726509  energy(sigma->0) =     -613.39777801
  exchange ACFDT corr.  =        -0.00214108  see jH, gK, PRB 81, 115126


--------------------------------------------------------------------------------------------------------




--------------------------------------- Iteration      1(   5)  ---------------------------------------


    POTLOK:  cpu time    1.0400: real time    1.0435
    SETDIJ:  cpu time    1.2229: real time    1.2287
    TRIAL :  cpu time  196.2305: real time  196.8510
    CORREC:  cpu time    0.0013: real time    0.0013
    CHARGE:  cpu time    0.8992: real time    0.9036
    --------------------------------------------
      LOOP:  cpu time  199.3954: real time  200.0334

 eigenvalue-minimisations  :     0
 total energy-change (2. order) :-0.1081747E+00  (-0.8679540E-01)
 number of electron     246.0000021 magnetization       5.9999607
 augmentation part       13.4874382 magnetization       3.9906994

 DIPCOR: dipole corrections for dipol
 direction  3 min pos     1,
 dipolmoment           0.000001      0.000000      0.001690 electrons x Angstroem
 Tr[quadrupol]     -6596.900020

 energy correction for charged system         0.000000 eV
 dipol+quadrupol energy correction            0.000000 eV
 added-field ion interaction          0.000000 eV  (added to PSCEN)


 Free energy of the ion-electron system (eV)
  ---------------------------------------------------
  alpha Z        PSCENC =       102.39950845
  Ewald energy   TEWEN  =     39637.52357027
  -Hartree energ DENC   =    -48205.66809010
  -exchange      EXHF   =       563.52334530
  -V(xc)+E(xc)   XCENC  =       620.21033686
  PAW double counting   =     27104.34349234   -27132.67057287
  entropy T*S    EENTRO =        -0.00045881
  eigenvalues    EBANDS =     -3260.31076629
  atomic energy  EATOM  =      9957.14373623
  ---------------------------------------------------
  free energy    TOTEN  =      -613.50646563 eV

  energy without entropy =     -613.50600682  energy(sigma->0) =     -613.50623623
  exchange ACFDT corr.  =        -0.00090150  see jH, gK, PRB 81, 115126


--------------------------------------------------------------------------------------------------------




--------------------------------------- Iteration      1(   6)  ---------------------------------------


    POTLOK:  cpu time    1.0383: real time    1.0416
    SETDIJ:  cpu time    1.2238: real time    1.2293
    TRIAL :  cpu time  196.1618: real time  196.7681
    CORREC:  cpu time    0.0011: real time    0.0011
    CHARGE:  cpu time    0.9006: real time    0.9032
    --------------------------------------------
      LOOP:  cpu time  199.3262: real time  199.9488

 eigenvalue-minimisations  :     0
 total energy-change (2. order) :-0.7167310E-01  (-0.5447197E-01)
 number of electron     246.0000021 magnetization       5.9999876
 augmentation part       13.4904445 magnetization       4.0032169

 DIPCOR: dipole corrections for dipol
 direction  3 min pos     1,
 dipolmoment           0.000001      0.000000      0.001821 electrons x Angstroem
 Tr[quadrupol]     -6596.954292

 energy correction for charged system         0.000000 eV
 dipol+quadrupol energy correction            0.000000 eV
 added-field ion interaction          0.000000 eV  (added to PSCEN)


 Free energy of the ion-electron system (eV)
  ---------------------------------------------------
  alpha Z        PSCENC =       102.39950847
  Ewald energy   TEWEN  =     39637.52357027
  -Hartree energ DENC   =    -48209.29026684
  -exchange      EXHF   =       563.82643739
  -V(xc)+E(xc)   XCENC  =       620.35617638
  PAW double counting   =     27170.24571096   -27198.61746443
  entropy T*S    EENTRO =        -0.00020722
  eigenvalues    EBANDS =     -3257.16508837
  atomic energy  EATOM  =      9957.14373623
  ---------------------------------------------------
  free energy    TOTEN  =      -613.57813873 eV

  energy without entropy =     -613.57793151  energy(sigma->0) =     -613.57803512
  exchange ACFDT corr.  =        -0.00035559  see jH, gK, PRB 81, 115126


--------------------------------------------------------------------------------------------------------




--------------------------------------- Iteration      1(   7)  ---------------------------------------


    POTLOK:  cpu time    1.0371: real time    1.0460
    SETDIJ:  cpu time    1.2261: real time    1.2350
    TRIAL :  cpu time  196.1258: real time  196.7344
    CORREC:  cpu time    0.0009: real time    0.0009
    CHARGE:  cpu time    0.8986: real time    0.9008
    --------------------------------------------
      LOOP:  cpu time  199.2894: real time  199.9222

 eigenvalue-minimisations  :     0
 total energy-change (2. order) :-0.4580432E-01  (-0.3479692E-01)
 number of electron     246.0000021 magnetization       5.9999949
 augmentation part       13.4947156 magnetization       4.0138644

 DIPCOR: dipole corrections for dipol
 direction  3 min pos     1,
 dipolmoment           0.000001      0.000000      0.001891 electrons x Angstroem
 Tr[quadrupol]     -6597.002051

 energy correction for charged system         0.000000 eV
 dipol+quadrupol energy correction            0.000000 eV
 added-field ion interaction          0.000000 eV  (added to PSCEN)


 Free energy of the ion-electron system (eV)
  ---------------------------------------------------
  alpha Z        PSCENC =       102.39950847
  Ewald energy   TEWEN  =     39637.52357027
  -Hartree energ DENC   =    -48212.85629305
  -exchange      EXHF   =       564.07294286
  -V(xc)+E(xc)   XCENC  =       620.49392395
  PAW double counting   =     27208.27057649   -27236.68754795
  entropy T*S    EENTRO =        -0.00009904
  eigenvalues    EBANDS =     -3253.98415312
  atomic energy  EATOM  =      9957.14373623
  ---------------------------------------------------
  free energy    TOTEN  =      -613.62394306 eV

  energy without entropy =     -613.62384402  energy(sigma->0) =     -613.62389354
  exchange ACFDT corr.  =        -0.00014372  see jH, gK, PRB 81, 115126


--------------------------------------------------------------------------------------------------------




--------------------------------------- Iteration      1(   8)  ---------------------------------------


    POTLOK:  cpu time    1.0307: real time    1.0336
    SETDIJ:  cpu time    1.2141: real time    1.2176
    TRIAL :  cpu time  196.3451: real time  197.0092
    CORREC:  cpu time    0.0014: real time    0.0014
    CHARGE:  cpu time    0.8999: real time    0.9043
    --------------------------------------------
      LOOP:  cpu time  199.4925: real time  200.1723

 eigenvalue-minimisations  :     0
 total energy-change (2. order) :-0.3011542E-01  (-0.2344957E-01)
 number of electron     246.0000021 magnetization       5.9999973
 augmentation part       13.4989486 magnetization       4.0234787

 DIPCOR: dipole corrections for dipol
 direction  3 min pos     1,
 dipolmoment           0.000001      0.000000      0.001910 electrons x Angstroem
 Tr[quadrupol]     -6597.029743

 energy correction for charged system         0.000000 eV
 dipol+quadrupol energy correction            0.000000 eV
 added-field ion interaction          0.000000 eV  (added to PSCEN)


 Free energy of the ion-electron system (eV)
  ---------------------------------------------------
  alpha Z        PSCENC =       102.39950847
  Ewald energy   TEWEN  =     39637.52357027
  -Hartree energ DENC   =    -48215.08701611
  -exchange      EXHF   =       564.24178351
  -V(xc)+E(xc)   XCENC  =       620.58976573
  PAW double counting   =     27229.61454708   -27258.07908907
  entropy T*S    EENTRO =        -0.00005022
  eigenvalues    EBANDS =     -3252.00076557
  atomic energy  EATOM  =      9957.14373623
  ---------------------------------------------------
  free energy    TOTEN  =      -613.65405848 eV

  energy without entropy =     -613.65400825  energy(sigma->0) =     -613.65403336
  exchange ACFDT corr.  =        -0.00006260  see jH, gK, PRB 81, 115126


--------------------------------------------------------------------------------------------------------




--------------------------------------- Iteration      1(   9)  ---------------------------------------


    POTLOK:  cpu time    1.0281: real time    1.0316
    SETDIJ:  cpu time    1.2149: real time    1.2203
    TRIAL :  cpu time  197.0490: real time  197.6927
    CORREC:  cpu time    0.0013: real time    0.0013
    CHARGE:  cpu time    0.9009: real time    0.9032
    --------------------------------------------
      LOOP:  cpu time  200.1952: real time  200.8543

 eigenvalue-minimisations  :     0
 total energy-change (2. order) :-0.2061460E-01  (-0.1608991E-01)
 number of electron     246.0000021 magnetization       5.9999983
 augmentation part       13.5022195 magnetization       4.0317644

 DIPCOR: dipole corrections for dipol
 direction  3 min pos     1,
 dipolmoment           0.000001      0.000000      0.001908 electrons x Angstroem
 Tr[quadrupol]     -6597.040572

 energy correction for charged system         0.000000 eV
 dipol+quadrupol energy correction            0.000000 eV
 added-field ion interaction          0.000000 eV  (added to PSCEN)


 Free energy of the ion-electron system (eV)
  ---------------------------------------------------
  alpha Z        PSCENC =       102.39950847
  Ewald energy   TEWEN  =     39637.52357027
  -Hartree energ DENC   =    -48216.06754538
  -exchange      EXHF   =       564.34766205
  -V(xc)+E(xc)   XCENC  =       620.64649880
  PAW double counting   =     27241.28604422   -27269.79688317
  entropy T*S    EENTRO =        -0.00002673
  eigenvalues    EBANDS =     -3251.15721437
  atomic energy  EATOM  =      9957.14373623
  ---------------------------------------------------
  free energy    TOTEN  =      -613.67467308 eV

  energy without entropy =     -613.67464635  energy(sigma->0) =     -613.67465971
  exchange ACFDT corr.  =        -0.00002936  see jH, gK, PRB 81, 115126


--------------------------------------------------------------------------------------------------------




--------------------------------------- Iteration      1(  10)  ---------------------------------------


    POTLOK:  cpu time    1.0303: real time    1.0332
    SETDIJ:  cpu time    1.2389: real time    1.2472
    TRIAL :  cpu time  195.7345: real time  196.3356
    CORREC:  cpu time    0.0014: real time    0.0014
    CHARGE:  cpu time    0.8982: real time    0.9006
    --------------------------------------------
      LOOP:  cpu time  198.9046: real time  199.5238

 eigenvalue-minimisations  :     0
 total energy-change (2. order) :-0.1430173E-01  (-0.1124842E-01)
 number of electron     246.0000021 magnetization       5.9999988
 augmentation part       13.5043792 magnetization       4.0385348

 DIPCOR: dipole corrections for dipol
 direction  3 min pos     1,
 dipolmoment           0.000001      0.000000      0.001905 electrons x Angstroem
 Tr[quadrupol]     -6597.042472

 energy correction for charged system         0.000000 eV
 dipol+quadrupol energy correction            0.000000 eV
 added-field ion interaction          0.000000 eV  (added to PSCEN)


 Free energy of the ion-electron system (eV)
  ---------------------------------------------------
  alpha Z        PSCENC =       102.39950847
  Ewald energy   TEWEN  =     39637.52357027
  -Hartree energ DENC   =    -48216.33584328
  -exchange      EXHF   =       564.41478980
  -V(xc)+E(xc)   XCENC  =       620.67922834
  PAW double counting   =     27247.38778970   -27275.93929604
  entropy T*S    EENTRO =        -0.00001491
  eigenvalues    EBANDS =     -3250.96243158
  atomic energy  EATOM  =      9957.14373623
  ---------------------------------------------------
  free energy    TOTEN  =      -613.68897481 eV

  energy without entropy =     -613.68895990  energy(sigma->0) =     -613.68896735
  exchange ACFDT corr.  =        -0.00001461  see jH, gK, PRB 81, 115126


--------------------------------------------------------------------------------------------------------




--------------------------------------- Iteration      1(  11)  ---------------------------------------


    POTLOK:  cpu time    1.0227: real time    1.0261
    SETDIJ:  cpu time    1.2237: real time    1.2292
    TRIAL :  cpu time  195.5617: real time  196.1789
    CORREC:  cpu time    0.0013: real time    0.0013
    CHARGE:  cpu time    0.8986: real time    0.9029
    --------------------------------------------
      LOOP:  cpu time  198.7096: real time  199.3441

 eigenvalue-minimisations  :     0
 total energy-change (2. order) :-0.1011099E-01  (-0.8035889E-02)
 number of electron     246.0000021 magnetization       5.9999990
 augmentation part       13.5057584 magnetization       4.0439213

 DIPCOR: dipole corrections for dipol
 direction  3 min pos     1,
 dipolmoment           0.000001      0.000000      0.001911 electrons x Angstroem
 Tr[quadrupol]     -6597.041670

 energy correction for charged system         0.000000 eV
 dipol+quadrupol energy correction            0.000000 eV
 added-field ion interaction          0.000000 eV  (added to PSCEN)


 Free energy of the ion-electron system (eV)
  ---------------------------------------------------
  alpha Z        PSCENC =       102.39950848
  Ewald energy   TEWEN  =     39637.52357027
  -Hartree energ DENC   =    -48216.35186622
  -exchange      EXHF   =       564.46195549
  -V(xc)+E(xc)   XCENC  =       620.70092737
  PAW double counting   =     27250.43091279   -27279.01517782
  entropy T*S    EENTRO =        -0.00000878
  eigenvalues    EBANDS =     -3250.99263749
  atomic energy  EATOM  =      9957.14373623
  ---------------------------------------------------
  free energy    TOTEN  =      -613.69908580 eV

  energy without entropy =     -613.69907702  energy(sigma->0) =     -613.69908141
  exchange ACFDT corr.  =        -0.00000769  see jH, gK, PRB 81, 115126


--------------------------------------------------------------------------------------------------------




--------------------------------------- Iteration      1(  12)  ---------------------------------------


    POTLOK:  cpu time    1.0197: real time    1.0236
    SETDIJ:  cpu time    1.1976: real time    1.2009
    TRIAL :  cpu time  195.5783: real time  196.1809
    CORREC:  cpu time    0.0013: real time    0.0013
    CHARGE:  cpu time    0.8969: real time    0.8993
    --------------------------------------------
      LOOP:  cpu time  198.6955: real time  199.3120

 eigenvalue-minimisations  :     0
 total energy-change (2. order) :-0.7287600E-02  (-0.5834900E-02)
 number of electron     246.0000021 magnetization       5.9999992
 augmentation part       13.5067854 magnetization       4.0482797

 DIPCOR: dipole corrections for dipol
 direction  3 min pos     1,
 dipolmoment           0.000001      0.000000      0.001924 electrons x Angstroem
 Tr[quadrupol]     -6597.040989

 energy correction for charged system         0.000000 eV
 dipol+quadrupol energy correction            0.000000 eV
 added-field ion interaction          0.000000 eV  (added to PSCEN)


 Free energy of the ion-electron system (eV)
  ---------------------------------------------------
  alpha Z        PSCENC =       102.39950848
  Ewald energy   TEWEN  =     39637.52357027
  -Hartree energ DENC   =    -48216.33847646
  -exchange      EXHF   =       564.49883286
  -V(xc)+E(xc)   XCENC  =       620.71813878
  PAW double counting   =     27252.08093802   -27280.68961752
  entropy T*S    EENTRO =        -0.00000550
  eigenvalues    EBANDS =     -3251.04299528
  atomic energy  EATOM  =      9957.14373623
  ---------------------------------------------------
  free energy    TOTEN  =      -613.70637340 eV

  energy without entropy =     -613.70636790  energy(sigma->0) =     -613.70637065
  exchange ACFDT corr.  =        -0.00000431  see jH, gK, PRB 81, 115126


--------------------------------------------------------------------------------------------------------




--------------------------------------- Iteration      1(  13)  ---------------------------------------


    POTLOK:  cpu time    1.1457: real time    1.1517
    SETDIJ:  cpu time    1.2286: real time    1.2320
    TRIAL :  cpu time  195.7101: real time  196.3592
    CORREC:  cpu time    0.0013: real time    0.0013
    CHARGE:  cpu time    0.8955: real time    0.8979
    --------------------------------------------
      LOOP:  cpu time  198.9822: real time  199.6476

 eigenvalue-minimisations  :     0
 total energy-change (2. order) :-0.5337978E-02  (-0.4319242E-02)
 number of electron     246.0000021 magnetization       5.9999993
 augmentation part       13.5077139 magnetization       4.0519428

 DIPCOR: dipole corrections for dipol
 direction  3 min pos     1,
 dipolmoment           0.000001      0.000000      0.001938 electrons x Angstroem
 Tr[quadrupol]     -6597.041034

 energy correction for charged system         0.000000 eV
 dipol+quadrupol energy correction            0.000000 eV
 added-field ion interaction          0.000000 eV  (added to PSCEN)


 Free energy of the ion-electron system (eV)
  ---------------------------------------------------
  alpha Z        PSCENC =       102.39950848
  Ewald energy   TEWEN  =     39637.52357027
  -Hartree energ DENC   =    -48216.35483001
  -exchange      EXHF   =       564.52920700
  -V(xc)+E(xc)   XCENC  =       620.73300606
  PAW double counting   =     27253.41509632   -27282.04170021
  entropy T*S    EENTRO =        -0.00000365
  eigenvalues    EBANDS =     -3251.05930002
  atomic energy  EATOM  =      9957.14373623
  ---------------------------------------------------
  free energy    TOTEN  =      -613.71171138 eV

  energy without entropy =     -613.71170773  energy(sigma->0) =     -613.71170956
  exchange ACFDT corr.  =        -0.00000258  see jH, gK, PRB 81, 115126


--------------------------------------------------------------------------------------------------------




--------------------------------------- Iteration      1(  14)  ---------------------------------------


    POTLOK:  cpu time    1.0144: real time    1.0176
    SETDIJ:  cpu time    1.2156: real time    1.2197
    TRIAL :  cpu time  195.6405: real time  196.2487
    CORREC:  cpu time    0.0012: real time    0.0012
    CHARGE:  cpu time    0.8978: real time    0.9001
    --------------------------------------------
      LOOP:  cpu time  198.7709: real time  199.3928

 eigenvalue-minimisations  :     0
 total energy-change (2. order) :-0.3984019E-02  (-0.3253697E-02)
 number of electron     246.0000021 magnetization       5.9999993
 augmentation part       13.5085962 magnetization       4.0550994

 DIPCOR: dipole corrections for dipol
 direction  3 min pos     1,
 dipolmoment           0.000001      0.000000      0.001953 electrons x Angstroem
 Tr[quadrupol]     -6597.041551

 energy correction for charged system         0.000000 eV
 dipol+quadrupol energy correction            0.000000 eV
 added-field ion interaction          0.000000 eV  (added to PSCEN)


 Free energy of the ion-electron system (eV)
  ---------------------------------------------------
  alpha Z        PSCENC =       102.39950848
  Ewald energy   TEWEN  =     39637.52357027
  -Hartree energ DENC   =    -48216.39369766
  -exchange      EXHF   =       564.55453551
  -V(xc)+E(xc)   XCENC  =       620.74592561
  PAW double counting   =     27254.98293156   -27283.62348896
  entropy T*S    EENTRO =        -0.00000255
  eigenvalues    EBANDS =     -3251.04871279
  atomic energy  EATOM  =      9957.14373623
  ---------------------------------------------------
  free energy    TOTEN  =      -613.71569540 eV

  energy without entropy =     -613.71569285  energy(sigma->0) =     -613.71569412
  exchange ACFDT corr.  =        -0.00000165  see jH, gK, PRB 81, 115126


--------------------------------------------------------------------------------------------------------




--------------------------------------- Iteration      1(  15)  ---------------------------------------


    POTLOK:  cpu time    1.0148: real time    1.0182
    SETDIJ:  cpu time    1.2110: real time    1.2162
    TRIAL :  cpu time  196.0096: real time  196.6068
    CORREC:  cpu time    0.0009: real time    0.0009
    CHARGE:  cpu time    0.8959: real time    0.8981
    --------------------------------------------
      LOOP:  cpu time  199.1337: real time  199.7458

 eigenvalue-minimisations  :     0
 total energy-change (2. order) :-0.3019864E-02  (-0.2487714E-02)
 number of electron     246.0000021 magnetization       5.9999993
 augmentation part       13.5093963 magnetization       4.0578370

 DIPCOR: dipole corrections for dipol
 direction  3 min pos     1,
 dipolmoment           0.000001      0.000000      0.001964 electrons x Angstroem
 Tr[quadrupol]     -6597.042257

 energy correction for charged system         0.000000 eV
 dipol+quadrupol energy correction            0.000000 eV
 added-field ion interaction          0.000000 eV  (added to PSCEN)


 Free energy of the ion-electron system (eV)
  ---------------------------------------------------
  alpha Z        PSCENC =       102.39950848
  Ewald energy   TEWEN  =     39637.52357027
  -Hartree energ DENC   =    -48216.44232464
  -exchange      EXHF   =       564.57587602
  -V(xc)+E(xc)   XCENC  =       620.75713207
  PAW double counting   =     27256.90735122   -27285.55980629
  entropy T*S    EENTRO =        -0.00000186
  eigenvalues    EBANDS =     -3251.02375608
  atomic energy  EATOM  =      9957.14373623
  ---------------------------------------------------
  free energy    TOTEN  =      -613.71871526 eV

  energy without entropy =     -613.71871340  energy(sigma->0) =     -613.71871433
  exchange ACFDT corr.  =        -0.00000112  see jH, gK, PRB 81, 115126


--------------------------------------------------------------------------------------------------------




--------------------------------------- Iteration      1(  16)  ---------------------------------------


    POTLOK:  cpu time    1.0125: real time    1.0152
    SETDIJ:  cpu time    1.2270: real time    1.2306
    TRIAL :  cpu time  195.9053: real time  196.5182
    CORREC:  cpu time    0.0013: real time    0.0013
    CHARGE:  cpu time    0.8977: real time    0.9000
    --------------------------------------------
      LOOP:  cpu time  199.0445: real time  199.6712

 eigenvalue-minimisations  :     0
 total energy-change (2. order) :-0.2321442E-02  (-0.1932426E-02)
 number of electron     246.0000021 magnetization       5.9999994
 augmentation part       13.5100661 magnetization       4.0601983

 DIPCOR: dipole corrections for dipol
 direction  3 min pos     1,
 dipolmoment           0.000001      0.000000      0.001972 electrons x Angstroem
 Tr[quadrupol]     -6597.042973

 energy correction for charged system         0.000000 eV
 dipol+quadrupol energy correction            0.000000 eV
 added-field ion interaction          0.000000 eV  (added to PSCEN)


 Free energy of the ion-electron system (eV)
  ---------------------------------------------------
  alpha Z        PSCENC =       102.39950848
  Ewald energy   TEWEN  =     39637.52357027
  -Hartree energ DENC   =    -48216.49507230
  -exchange      EXHF   =       564.59422399
  -V(xc)+E(xc)   XCENC  =       620.76700522
  PAW double counting   =     27259.02287858   -27287.68607826
  entropy T*S    EENTRO =        -0.00000141
  eigenvalues    EBANDS =     -3250.99080706
  atomic energy  EATOM  =      9957.14373623
  ---------------------------------------------------
  free energy    TOTEN  =      -613.72103670 eV

  energy without entropy =     -613.72103529  energy(sigma->0) =     -613.72103600
  exchange ACFDT corr.  =        -0.00000080  see jH, gK, PRB 81, 115126


--------------------------------------------------------------------------------------------------------




--------------------------------------- Iteration      1(  17)  ---------------------------------------


    POTLOK:  cpu time    1.0142: real time    1.0176
    SETDIJ:  cpu time    1.2289: real time    1.2321
    TRIAL :  cpu time  195.4838: real time  196.1023
    CORREC:  cpu time    0.0014: real time    0.0014
    CHARGE:  cpu time    0.9021: real time    0.9045
    --------------------------------------------
      LOOP:  cpu time  198.6314: real time  199.2634

 eigenvalue-minimisations  :     0
 total energy-change (2. order) :-0.1812024E-02  (-0.1522665E-02)
 number of electron     246.0000021 magnetization       5.9999994
 augmentation part       13.5105853 magnetization       4.0622257

 DIPCOR: dipole corrections for dipol
 direction  3 min pos     1,
 dipolmoment           0.000001      0.000000      0.001977 electrons x Angstroem
 Tr[quadrupol]     -6597.043530

 energy correction for charged system         0.000000 eV
 dipol+quadrupol energy correction            0.000000 eV
 added-field ion interaction          0.000000 eV  (added to PSCEN)


 Free energy of the ion-electron system (eV)
  ---------------------------------------------------
  alpha Z        PSCENC =       102.39950848
  Ewald energy   TEWEN  =     39637.52357027
  -Hartree energ DENC   =    -48216.54349307
  -exchange      EXHF   =       564.61015912
  -V(xc)+E(xc)   XCENC  =       620.77575347
  PAW double counting   =     27261.07480962   -27289.74742396
  entropy T*S    EENTRO =        -0.00000110
  eigenvalues    EBANDS =     -3250.95946748
  atomic energy  EATOM  =      9957.14373623
  ---------------------------------------------------
  free energy    TOTEN  =      -613.72284873 eV

  energy without entropy =     -613.72284762  energy(sigma->0) =     -613.72284818
  exchange ACFDT corr.  =        -0.00000059  see jH, gK, PRB 81, 115126


--------------------------------------------------------------------------------------------------------




[...]
  augment    48.71214    47.82197    52.95641    -0.14358     0.00354     0.01679
  Kinetic  3707.60052  3680.01850  4241.43023    -0.44750    -0.01834     0.18977
  Fock     -329.78000  -329.06751  -310.29468    -0.00874     0.01127     0.01908
  -------------------------------------------------------------------------------------
  Total     -44.40632   -44.70989    -0.49763    -0.50574    -0.00195     0.00577
  in kB     -22.39519   -22.54829    -0.25097    -0.25506    -0.00098     0.00291
  external pressure =      -15.06 kB  Pullay stress =        0.00 kB


 VOLUME and BASIS-vectors are now :
 -----------------------------------------------------------------------------
  energy-cutoff  :      500.00
  volume of cell :     3176.88
      direct lattice vectors                 reciprocal lattice vectors
    13.010700000  0.000000000  0.000000000     0.076859815  0.000118048 -0.000030601
    -0.018832612 12.261685538  0.000000000     0.000000000  0.081554856 -0.000010725
     0.007924320  0.002618858 19.913598251     0.000000000  0.000000000  0.050216942

  length of vectors
    13.010700000 12.261700000 19.913600000     0.076859912  0.081554857  0.050216942


 FORCES acting on ions:
    Electron-Ion                     Ewald-Force                    Non-Local-Force
 -----------------------------------------------------------------------------------------------
   -.139E+01 0.192E+01 -.131E+00   0.126E+01 -.168E+01 0.136E+00   0.435E-01 -.173E+00 -.657E-02
   0.278E+01 0.102E+02 -.636E+00   -.259E+01 -.103E+02 0.635E+00   -.155E+00 0.251E+00 -.244E-02
   -.895E+01 0.989E+00 -.373E+00   0.906E+01 -.939E+00 0.370E+00   -.654E-01 -.730E-01 0.207E-03
   0.593E+01 0.131E+02 0.880E+00   -.604E+01 -.131E+02 -.885E+00   0.135E+00 -.111E+00 0.711E-02
   0.109E+02 0.499E+02 0.759E+00   -.122E+02 -.527E+02 -.743E+00   0.138E+01 0.328E+01 -.150E-01
   0.102E+02 0.156E+02 -.111E+01   -.105E+02 -.158E+02 0.111E+01   0.272E+00 0.231E+00 0.616E-02
   0.400E+00 0.145E+02 -.463E+00   -.632E+00 -.148E+02 0.464E+00   0.139E+00 0.234E+00 -.135E-02
   0.304E+02 -.889E+01 -.588E+00   -.322E+02 0.119E+02 0.620E+00   0.176E+01 -.294E+01 -.371E-01
   0.916E+01 -.127E+01 -.273E+01   -.929E+01 0.118E+01 0.273E+01   0.123E+00 0.653E-01 -.263E-02
   0.192E+02 0.545E+00 -.214E+01   -.197E+02 -.138E+00 0.215E+01   0.460E+00 -.298E+00 -.134E-01
   0.347E+02 -.875E+01 0.591E+00   -.360E+02 0.853E+01 -.597E+00   0.137E+01 0.365E+00 -.822E-03
   0.213E+02 0.281E+01 -.184E+01   -.235E+02 -.657E+01 0.185E+01   0.200E+01 0.340E+01 -.196E-01
   0.807E+01 -.161E+02 -.129E+01   -.855E+01 0.161E+02 0.130E+01   0.353E+00 -.149E+00 -.876E-03
   0.178E+02 -.328E+01 -.267E+01   -.183E+02 0.280E+01 0.268E+01   0.594E+00 0.411E+00 -.124E-01
   0.338E+01 -.438E+02 -.698E+00   -.507E+01 0.473E+02 0.700E+00   0.171E+01 -.363E+01 -.815E-02
   0.237E+01 -.799E+01 -.448E+00   -.222E+01 0.839E+01 0.451E+00   -.104E+00 -.399E+00 -.238E-02
   -.383E+00 -.127E+02 -.786E+00   -.120E+00 0.131E+02 0.780E+00   0.481E+00 -.285E+00 0.567E-02
   0.278E+01 -.662E+01 -.330E+00   -.305E+01 0.695E+01 0.326E+00   0.300E+00 -.264E+00 0.501E-03
   0.117E+01 0.309E+01 -.147E+01   -.109E+01 -.299E+01 0.146E+01   -.107E+00 -.885E-01 0.387E-02
   0.289E+02 0.302E+02 0.598E+00   -.313E+02 -.325E+02 -.586E+00   0.243E+01 0.255E+01 -.116E-01
   0.136E+02 0.233E+01 -.874E+00   -.139E+02 -.204E+01 0.877E+00   0.280E+00 -.343E+00 -.674E-02
   -.110E+02 0.961E+01 -.142E+01   0.118E+02 -.951E+01 0.143E+01   -.653E+00 -.520E-01 -.123E-01
   -.323E+02 0.122E+02 0.474E-01   0.354E+02 -.123E+02 -.283E-01   -.320E+01 -.322E-01 -.215E-01
   -.221E+02 0.195E+02 0.433E+00   0.240E+02 -.220E+02 -.413E+00   -.171E+01 0.249E+01 -.193E-01
   -.120E+02 -.645E+01 0.698E+00   0.155E+02 0.557E+01 -.667E+00   -.369E+01 0.464E+00 -.322E-01
   -.108E+02 -.190E+02 -.441E+00   0.132E+02 0.218E+02 0.460E+00   -.223E+01 -.257E+01 -.210E-01
   -.247E+02 -.238E+01 -.116E+01   0.285E+02 0.274E+01 0.118E+01   -.362E+01 -.348E+00 -.175E-01
   0.292E+02 -.195E+02 -.586E+00   -.318E+02 0.227E+02 0.582E+00   0.251E+01 -.318E+01 -.665E-03
   -.912E+01 -.536E+01 -.178E+01   0.997E+01 0.553E+01 0.178E+01   -.784E+00 -.213E+00 -.129E-01
   -.521E+00 0.749E+00 -.607E+00   0.574E+00 -.711E+00 0.607E+00   -.113E+00 -.391E-01 0.274E-02
   -.116E+01 0.634E+01 -.146E+01   0.162E+01 -.632E+01 0.146E+01   -.401E+00 0.144E-01 -.138E-02
   -.828E+01 0.112E+01 -.114E+01   0.850E+01 -.105E+01 0.115E+01   -.161E+00 -.533E-01 -.236E-02
   -.882E+01 0.318E+01 -.874E+00   0.896E+01 -.316E+01 0.876E+00   -.151E+00 -.374E-03 -.292E-02
   0.983E+00 0.863E+01 -.115E+01   -.849E+00 -.867E+01 0.115E+01   -.849E-01 0.555E-01 0.258E-04
   -.127E+02 0.831E+01 -.720E+00   0.129E+02 -.878E+01 0.721E+00   -.332E+00 0.365E+00 -.347E-02
   -.824E+01 0.430E+00 -.128E+01   0.840E+01 -.773E+00 0.128E+01   -.187E+00 0.263E+00 -.296E-02
   0.248E+01 0.102E+01 -.126E+01   -.257E+01 -.108E+01 0.127E+01   0.149E+00 0.943E-02 -.347E-03
   0.606E+00 0.499E+01 -.139E+01   -.401E+00 -.505E+01 0.139E+01   -.224E+00 0.140E+00 -.185E-02
   -.725E+01 -.262E+01 -.711E+00   0.818E+01 0.261E+01 0.718E+00   -.758E+00 0.134E-01 -.119E-01
   -.742E+01 -.118E+01 -.816E+00   0.782E+01 0.116E+01 0.809E+00   -.383E+00 0.115E+00 0.537E-02
   0.630E+01 -.132E+01 -.182E+01   -.621E+01 0.131E+01 0.182E+01   -.133E+00 -.125E-02 -.105E-02
   0.647E+00 -.643E+01 -.982E+00   -.552E+00 0.647E+01 0.984E+00   -.196E+00 -.113E+00 0.991E-03
   -.102E+02 -.834E+01 -.532E+00   0.107E+02 0.876E+01 0.529E+00   -.627E+00 -.319E+00 0.398E-03
   -.521E+01 -.140E+01 -.653E+00   0.575E+01 0.130E+01 0.652E+00   -.405E+00 -.750E-02 -.135E-02
   0.293E+01 -.141E+01 -.546E+00   -.304E+01 0.141E+01 0.545E+00   0.195E+00 0.510E-01 0.659E-02
   0.131E+01 -.778E+01 -.118E+00   -.112E+01 0.781E+01 0.118E+00   -.131E+00 -.408E-01 0.516E-02
   -.107E+00 -.376E+01 -.115E+01   0.645E+00 0.381E+01 0.114E+01   -.497E+00 -.880E-01 0.297E-02
   -.675E+01 0.830E+00 -.554E+00   0.694E+01 -.429E+00 0.555E+00   -.231E+00 -.325E+00 0.776E-03
   -.890E+01 -.158E+01 -.238E+00   0.899E+01 0.163E+01 0.241E+00   -.986E-01 -.608E-01 0.139E-02
   -.232E+02 0.381E+02 0.325E+01   0.430E+02 -.369E+02 -.349E+01   -.190E+02 -.152E+01 0.232E+00
   -.494E+02 -.349E+02 -.274E+00   0.668E+02 0.341E+02 0.217E+00   -.166E+02 0.103E+01 0.567E-01
   0.332E+02 0.276E+01 0.287E+01   -.435E+02 0.145E+02 -.309E+01   0.972E+01 -.166E+02 0.211E+00
   0.308E+02 -.221E+02 0.322E+01   -.519E+02 0.214E+02 -.343E+01   0.202E+02 0.104E+01 0.205E+00
   -.829E+02 -.226E+02 0.964E+01   0.102E+03 0.189E+02 -.101E+02   -.181E+02 0.389E+01 0.451E+00
   0.454E+02 0.818E+01 0.154E+01   -.631E+02 -.843E+01 -.163E+01   0.167E+02 0.117E+00 0.862E-01
   0.409E+02 0.246E+02 -.267E+00   -.507E+02 -.400E+02 0.201E+00   0.928E+01 0.147E+02 0.591E-01
   -.243E+02 0.365E+01 0.111E+02   0.234E+02 -.213E+01 -.111E+02   0.110E+01 -.151E+01 -.545E-01
   -.192E+02 -.237E+02 0.580E+01   0.180E+02 0.212E+02 -.576E+01   0.131E+01 0.235E+01 -.345E-01
 -----------------------------------------------------------------------------------------------
   0.224E+00 -.203E+01 -.105E+01   -.149E-12 -.746E-13 -.142E-13   -.156E+00 0.202E+01 0.954E+00
 
 
 POSITION                                       TOTAL-FORCE (eV/Angst)
 -----------------------------------------------------------------------------------
      2.96806      0.00863      9.95277        -0.090335      0.057501     -0.002425
      0.76100      1.22747      9.95663         0.029546      0.082156     -0.003375
      1.51083      0.00524      9.95550         0.025278     -0.026919     -0.003221
      3.68006      1.28884      9.94785         0.030839     -0.124776      0.001844
      2.90246      2.52451      9.94707         0.138455      0.620674     -0.000469
      0.66341      3.66526      9.95810        -0.043403      0.054595      0.001284
      1.45049      2.46851      9.95440        -0.096035     -0.100594     -0.000518
      2.72321      4.90752      9.94922         0.108908     -0.114242     -0.007593
      0.61625      6.13222      9.96300        -0.000697     -0.019650     -0.006164
      1.32586      4.90628      9.95889         0.026122      0.085900     -0.007008
      3.41553      6.13470      9.94369         0.123814      0.170776     -0.006604
      2.71652      7.36053      9.95497        -0.107644     -0.195768     -0.011370
      0.65288      8.60069      9.95986        -0.105887     -0.087658      0.001498
      1.32182      7.36127      9.96168         0.088672     -0.040475     -0.008033
      2.88349      9.75570      9.95486         0.112991     -0.341302     -0.006708
      0.74471     11.04479      9.95693         0.052759     -0.020634      0.000128
      1.43694      9.80291      9.95746        -0.005576      0.073718     -0.000010
      3.65963     10.98969      9.95368         0.042952      0.060775     -0.003373
      7.24859     12.26035      9.95758        -0.030828      0.013554     -0.007498
      5.13822      1.28334      9.94731         0.199699      0.354840     -0.000152
      5.83015      0.00661      9.95401         0.065469     -0.067881     -0.004797
      7.99732      1.22165      9.95680         0.021221      0.042871     -0.006563
      7.27447      2.44279      9.94879        -0.284335     -0.083814     -0.003566
      7.98635      3.69279      9.94779         0.077750      0.181145     -0.000186
      7.91800      6.11158      9.94637        -0.331028     -0.394713     -0.002723
      7.97465      8.56026      9.95276         0.111555      0.131100     -0.002778
      7.25772      9.81454      9.95558         0.046333      0.000865     -0.005879
      5.11973     10.99816      9.95366         0.053151     -0.163960     -0.005367
      7.98054     11.03631      9.95927         0.020563     -0.051756     -0.005800
     11.57968     12.26277      9.95865        -0.056537     -0.003878      0.002545
      9.43009      1.21684      9.95955         0.049606      0.047260     -0.003275
     10.14283     12.26086      9.95984         0.043474      0.013156      0.000252
     12.32274      1.22486      9.95888        -0.030554      0.017648     -0.000545
     11.56698      2.43593      9.95986         0.051039      0.028169     -0.002078
      9.40120      3.66460      9.95517        -0.166173     -0.071381     -0.002994
     10.13544      2.43804      9.95908        -0.036178     -0.074094     -0.003331
     12.25412      3.66820      9.96010         0.061858     -0.060980      0.001106
     11.51904      4.89774      9.96041        -0.031047      0.092024      0.000252
      9.36381      6.12367      9.95437         0.137670     -0.001468     -0.005447
     10.09801      4.90110      9.95682         0.000431      0.097000     -0.001273
     12.21673      6.13109      9.96201        -0.047450     -0.015866     -0.001083
     11.51088      7.36210      9.95950        -0.111525     -0.085388      0.002294
      9.38782      8.59123      9.95591        -0.192747      0.073580     -0.002469
     10.09024      7.35314      9.95674         0.112053     -0.102728     -0.002309
     12.24521      8.59445      9.95865         0.101074      0.060724      0.005800
     11.55341      9.82614      9.95732         0.063954     -0.020528      0.005616
      9.41362     11.04144      9.95937         0.022729     -0.043692     -0.000935
     10.12116      9.82035      9.95769        -0.053177      0.067420      0.001714
     12.30581     11.04018      9.95740        -0.029089     -0.009545      0.003606
      3.50833      3.76699      9.94023        -0.850085     -0.411750      0.014579
      3.49223      8.51059      9.95157        -0.604624      0.269135      0.003769
      5.88554      2.46362      9.94110         0.297053     -0.793160      0.014893
      7.25177      4.89146      9.93983         0.809707      0.352113      0.014930
      4.76856      6.11874      9.92502        -0.458328      0.577012      0.018876
      7.25554      7.34232      9.94544         0.395079     -0.110741      0.009100
      5.86566      9.81962      9.95196         0.233088      0.540629     -0.002442
      5.35347      4.32381      9.92795         0.089830     -0.060072      0.028894
      5.36193      7.89750      9.93770        -0.081442     -0.466926      0.007383
 -----------------------------------------------------------------------------------
    total drift:                               -0.000422     -0.000629      0.001932


--------------------------------------------------------------------------------------------------------



  FREE ENERGIE OF THE ION-ELECTRON SYSTEM (eV)
  ---------------------------------------------------
  free  energy   TOTEN  =      -613.73181758 eV

  energy  without entropy=     -613.73181741  energy(sigma->0) =     -613.73181750
 


--------------------------------------------------------------------------------------------------------


    POTLOK:  cpu time    2.2768: real time    2.2872


--------------------------------------------------------------------------------------------------------


 stress matrix after NEB project (eV)
    -44.40632     -0.50507      0.00577
     -0.50574    -44.70989     -0.00199
      0.00559     -0.00195     -0.49763
  FORCES: max atom, RMS     0.944667    0.314612
  FORCE total and by dimension    2.396013    0.850085
  Stress total and by dimension   63.021059   44.709890
 writing wavefunctions
     LOOP+:  cpu time10395.4397: real time10435.1134
    4ORBIT:  cpu time    0.0000: real time    0.0000
 


 total charge     
 
# of ion       s       p       d       tot
------------------------------------------
    1        0.850   1.689   0.000   2.539
    2        0.863   1.752   0.000   2.616
    3        0.855   1.755   0.000   2.610
    4        0.843   1.730   0.000   2.573
    5        0.850   1.694   0.000   2.544
    6        0.872   1.779   0.000   2.651
    7        0.861   1.768   0.000   2.629
    8        0.873   1.784   0.000   2.656
    9        0.869   1.810   0.000   2.678
   10        0.877   1.818   0.000   2.695
   11        0.879   1.792   0.000   2.672
   12        0.871   1.785   0.000   2.657
   13        0.872   1.776   0.000   2.648
   14        0.877   1.819   0.000   2.696
   15        0.851   1.691   0.000   2.542
   16        0.863   1.751   0.000   2.614
   17        0.861   1.769   0.000   2.630
   18        0.842   1.732   0.000   2.575
   19        0.868   1.754   0.000   2.623
   20        0.847   1.684   0.000   2.530
   21        0.856   1.751   0.000   2.607
   22        0.866   1.785   0.000   2.651
   23        0.862   1.735   0.000   2.597
   24        0.856   1.737   0.000   2.593
   25        0.841   1.664   0.000   2.505
   26        0.852   1.732   0.000   2.584
   27        0.858   1.732   0.000   2.590
   28        0.848   1.682   0.000   2.530
   29        0.865   1.781   0.000   2.647
   30        0.868   1.768   0.000   2.636
   31        0.869   1.785   0.000   2.654
   32        0.866   1.777   0.000   2.643
   33        0.863   1.764   0.000   2.627
   34        0.869   1.775   0.000   2.645
   35        0.870   1.785   0.000   2.655
   36        0.866   1.783   0.000   2.650
   37        0.868   1.791   0.000   2.659
   38        0.867   1.783   0.000   2.650
   39        0.862   1.771   0.000   2.634
   40        0.869   1.779   0.000   2.649
   41        0.874   1.788   0.000   2.663
   42        0.866   1.780   0.000   2.647
   43        0.869   1.780   0.000   2.649
   44        0.867   1.777   0.000   2.645
   45        0.867   1.791   0.000   2.658
   46        0.869   1.772   0.000   2.641
   47        0.868   1.784   0.000   2.652
   48        0.866   1.781   0.000   2.646
   49        0.862   1.764   0.000   2.626
   50        1.231   2.664   0.000   3.895
   51        1.227   2.678   0.000   3.905
   52        1.227   2.654   0.000   3.882
   53        1.223   2.645   0.000   3.868
   54        1.247   2.604   0.000   3.851
   55        1.216   2.666   0.000   3.882
   56        1.224   2.671   0.000   3.895
   57        0.435   0.590   6.266   7.291
   58        0.357   0.480   4.817   5.653
--------------------------------------------------
tot         51.684 105.961  11.083 168.729
 


 magnetization (x)
 
# of ion       s       p       d       tot
------------------------------------------
    1       -0.000   0.001   0.000   0.001
    2        0.000   0.001   0.000   0.001
    3        0.000   0.002   0.000   0.002
    4        0.000   0.004   0.000   0.005
    5       -0.000  -0.004   0.000  -0.005
    6        0.000   0.001   0.000   0.001
    7       -0.000  -0.001   0.000  -0.001
    8       -0.000   0.010   0.000   0.009
    9        0.001   0.010   0.000   0.011
   10       -0.001  -0.004   0.000  -0.004
   11        0.003   0.003   0.000   0.005
   12        0.001   0.010   0.000   0.011
   13        0.000   0.002   0.000   0.002
   14       -0.000  -0.004   0.000  -0.005
   15        0.001   0.005   0.000   0.005
   16        0.000   0.003   0.000   0.003
   17       -0.000  -0.002   0.000  -0.002
   18        0.000   0.002   0.000   0.002
   19        0.001   0.009   0.000   0.010
   20       -0.000  -0.005   0.000  -0.006
   21       -0.001  -0.001   0.000  -0.002
   22       -0.001  -0.004   0.000  -0.005
   23        0.000   0.010   0.000   0.011
   24        0.000   0.004   0.000   0.004
   25        0.000   0.003   0.000   0.003
   26        0.002   0.004   0.000   0.006
   27        0.002   0.010   0.000   0.012
   28        0.000   0.007   0.000   0.007
   29       -0.000  -0.002   0.000  -0.003
   30        0.000   0.001   0.000   0.002
   31        0.000   0.003   0.000   0.003
   32       -0.000  -0.001   0.000  -0.001
   33       -0.000  -0.001   0.000  -0.001
   34       -0.000   0.000   0.000   0.000
   35       -0.000   0.001   0.000   0.001
   36       -0.000  -0.001   0.000  -0.001
   37        0.000   0.002   0.000   0.002
   38        0.000   0.004   0.000   0.005
   39       -0.000   0.005   0.000   0.004
   40        0.000   0.003   0.000   0.003
   41       -0.000  -0.002   0.000  -0.002
   42        0.000   0.004   0.000   0.004
   43        0.000   0.002   0.000   0.002
   44       -0.000  -0.002   0.000  -0.002
   45       -0.000  -0.002   0.000  -0.002
   46        0.000   0.004   0.000   0.004
   47        0.000   0.003   0.000   0.003
   48       -0.000  -0.002   0.000  -0.002
   49       -0.000  -0.002   0.000  -0.002
   50       -0.004  -0.017   0.000  -0.021
   51       -0.008  -0.048   0.000  -0.056
   52       -0.003  -0.011   0.000  -0.014
   53       -0.003  -0.000   0.000  -0.003
   54       -0.011  -0.061   0.000  -0.072
   55       -0.008  -0.034   0.000  -0.042
   56       -0.006  -0.025   0.000  -0.031
   57        0.038   0.019   1.913   1.970
   58        0.058   0.036   3.612   3.707
--------------------------------------------------
tot          0.062  -0.049   5.525   5.537
 

 total amount of memory used by VASP MPI-rank0   153374. kBytes
=======================================================================

   base      :      30000. kBytes
   nonl-proj :       4268. kBytes
   fftplans  :      11188. kBytes
   grid      :      29312. kBytes
   one-center:         62. kBytes
   HF        :         23. kBytes
   nonlr-proj:      15884. kBytes
   wavefun   :      62637. kBytes
 
  
  
 General timing and accounting informations for this job:
 ========================================================
  
                  Total CPU time used (sec):    10435.680
                            User time (sec):    10406.129
                          System time (sec):       29.551
                         Elapsed time (sec):    10481.717
  
                   Maximum memory used (kb):      388704.
                   Average memory used (kb):           0.
  
                          Minor page faults:       778522
                          Major page faults:          198
                 Voluntary context switches:       158996
