 vasp.5.4.4.18Apr17-6-g9f103f2a35 (build Feb 25 2019 10:51:38) complex          
  
 executed on             LinuxIFC date 2022.02.08  14:53:57
 running on   32 total cores
 distrk:  each k-point on   32 cores,    1 groups
 distr:  one band on NCORES_PER_BAND=  32 cores,    1 groups


--------------------------------------------------------------------------------------------------------


 INCAR:
 POTCAR:    PAW_PBE C 08Apr2002                   
 POTCAR:    PAW_PBE N 08Apr2002                   
 POTCAR:    PAW_PBE Cu 22Jun2005                  
 POTCAR:    PAW_PBE Fe 06Sep2000                  

 ----------------------------------------------------------------------------- 
|                                                                             |
|           W    W    AA    RRRRR   N    N  II  N    N   GGGG   !!!           |
|           W    W   A  A   R    R  NN   N  II  NN   N  G    G  !!!           |
|           W    W  A    A  R    R  N N  N  II  N N  N  G       !!!           |
|           W WW W  AAAAAA  RRRRR   N  N N  II  N  N N  G  GGG   !            |
|           WW  WW  A    A  R   R   N   NN  II  N   NN  G    G                |
|           W    W  A    A  R    R  N    N  II  N    N   GGGG   !!!           |
|                                                                             |
|      For optimal performance we recommend to set                            |
|        NCORE= 4 - approx SQRT( number of cores)                             |
|      NCORE specifies how many cores store one orbital (NPAR=cpu/NCORE).     |
|      This setting can  greatly improve the performance of VASP for DFT.     |
|      The default,   NCORE=1            might be grossly inefficient         |
|      on modern multi-core architectures or massively parallel machines.     |
|      Do your own testing !!!!                                               |
|      Unfortunately you need to use the default for GW and RPA calculations. |
|      (for HF NCORE is supported but not extensively tested yet)             |
|                                                                             |
 ----------------------------------------------------------------------------- 

 POTCAR:    PAW_PBE C 08Apr2002                   
   VRHFIN =C: s2p2                                                              
   LEXCH  = PE                                                                  
   EATOM  =   147.1560 eV,   10.8157 Ry                                         
                                                                                
   TITEL  = PAW_PBE C 08Apr2002                                                 
   LULTRA =        F    use ultrasoft PP ?                                      
   IUNSCR =        1    unscreen: 0-lin 1-nonlin 2-no                           
   RPACOR =    1.200    partial core radius                                     
   POMASS =   12.011; ZVAL   =    4.000    mass and valenz                      
   RCORE  =    1.500    outmost cutoff radius                                   
   RWIGS  =    1.630; RWIGS  =    0.863    wigner-seitz radius (au A)           
   ENMAX  =  400.000; ENMIN  =  300.000 eV                                      
   ICORE  =        2    local potential                                         
   LCOR   =        T    correct aug charges                                     
   LPAW   =        T    paw PP                                                  
   EAUG   =  644.873                                                            
   DEXC   =    0.000                                                            
   RMAX   =    1.529    core radius for proj-oper                               
   RAUG   =    1.300    factor for augmentation sphere                          
   RDEP   =    1.501    radius for radial grids                                 
   RDEPT  =    1.300    core radius for aug-charge                              
                                                                                
   Atomic configuration                                                         
    4 entries                                                                   
     n  l   j            E        occ.                                          
     1  0  0.50      -273.3789   2.0000                                         
     2  0  0.50       -13.7508   2.0000                                         
     2  1  0.50        -5.2854   2.0000                                         
     3  2  1.50        -5.4423   0.0000                                         
   Description                                                                  
     l       E           TYP  RCUT    TYP  RCUT                                 
     0    -13.7508458     23  1.200                                             
     0     -8.2022199     23  1.200                                             
     1     -5.2854383     23  1.500                                             
     1     34.0145650     23  1.500                                             
     2     -5.4423304      7  1.500                                             
  local pseudopotential read in
  partial core-charges read in
  partial kinetic energy density read in
  atomic valenz-charges read in
  non local Contribution for L=           0  read in
    real space projection operators read in
  non local Contribution for L=           0  read in
    real space projection operators read in
  non local Contribution for L=           1  read in
    real space projection operators read in
  non local Contribution for L=           1  read in
    real space projection operators read in
    PAW grid and wavefunctions read in
 
   number of l-projection  operators is LMAX  =           4
   number of lm-projection operators is LMMAX =           8
 
 POTCAR:    PAW_PBE N 08Apr2002                   
   VRHFIN =N: s2p3                                                              
   LEXCH  = PE                                                                  
   EATOM  =   264.5486 eV,   19.4438 Ry                                         
                                                                                
   TITEL  = PAW_PBE N 08Apr2002                                                 
   LULTRA =        F    use ultrasoft PP ?                                      
   IUNSCR =        1    unscreen: 0-lin 1-nonlin 2-no                           
   RPACOR =    1.200    partial core radius                                     
   POMASS =   14.001; ZVAL   =    5.000    mass and valenz                      
   RCORE  =    1.500    outmost cutoff radius                                   
   RWIGS  =    1.400; RWIGS  =    0.741    wigner-seitz radius (au A)           
   ENMAX  =  400.000; ENMIN  =  300.000 eV                                      
   ICORE  =        2    local potential                                         
   LCOR   =        T    correct aug charges                                     
   LPAW   =        T    paw PP                                                  
   EAUG   =  627.112                                                            
   DEXC   =    0.000                                                            
   RMAX   =    1.529    core radius for proj-oper                               
   RAUG   =    1.300    factor for augmentation sphere                          
   RDEP   =    1.514    radius for radial grids                                 
   RDEPT  =    1.338    core radius for aug-charge                              
                                                                                
   Atomic configuration                                                         
    4 entries                                                                   
     n  l   j            E        occ.                                          
     1  0  0.50      -384.7179   2.0000                                         
     2  0  0.50       -18.5828   2.0000                                         
     2  1  0.50        -7.0898   3.0000                                         
     3  2  1.50        -6.8029   0.0000                                         
   Description                                                                  
     l       E           TYP  RCUT    TYP  RCUT                                 
     0    -18.5828119     23  1.200                                             
     0    -13.5018863     23  1.200                                             
     1     -7.0897853     23  1.500                                             
     1      9.5240782     23  1.500                                             
     2     -6.8029130      7  1.500                                             
  local pseudopotential read in
  partial core-charges read in
  partial kinetic energy density read in
  atomic valenz-charges read in
  non local Contribution for L=           0  read in
    real space projection operators read in
  non local Contribution for L=           0  read in
    real space projection operators read in
  non local Contribution for L=           1  read in
    real space projection operators read in
  non local Contribution for L=           1  read in
    real space projection operators read in
    PAW grid and wavefunctions read in
 
   number of l-projection  operators is LMAX  =           4
   number of lm-projection operators is LMMAX =           8
 
 POTCAR:    PAW_PBE Cu 22Jun2005                  
   VRHFIN =Cu: d10 p1                                                           
   LEXCH  = PE                                                                  
   EATOM  =  1390.9808 eV,  102.2342 Ry                                         
                                                                                
   TITEL  = PAW_PBE Cu 22Jun2005                                                
   LULTRA =        F    use ultrasoft PP ?                                      
   IUNSCR =        1    unscreen: 0-lin 1-nonlin 2-no                           
   RPACOR =    2.000    partial core radius                                     
   POMASS =   63.546; ZVAL   =   11.000    mass and valenz                      
   RCORE  =    2.300    outmost cutoff radius                                   
   RWIGS  =    2.200; RWIGS  =    1.164    wigner-seitz radius (au A)           
   ENMAX  =  295.446; ENMIN  =  221.585 eV                                      
   ICORE  =        3    local potential                                         
   LCOR   =        T    correct aug charges                                     
   LPAW   =        T    paw PP                                                  
   EAUG   =  586.980                                                            
   DEXC   =    0.000                                                            
   RMAX   =    2.344    core radius for proj-oper                               
   RAUG   =    1.300    factor for augmentation sphere                          
   RDEP   =    2.302    radius for radial grids                                 
   RDEPT  =    1.771    core radius for aug-charge                              
                                                                                
   Atomic configuration                                                         
    9 entries                                                                   
     n  l   j            E        occ.                                          
     1  0  0.50     -8850.2468   2.0000                                         
     2  0  0.50     -1062.3498   2.0000                                         
     2  1  1.50      -916.8226   6.0000                                         
     3  0  0.50      -114.6929   2.0000                                         
     3  1  1.50       -72.1325   6.0000                                         
     3  2  2.50        -5.0394  10.0000                                         
     4  0  0.50        -4.6097   1.0000                                         
     4  1  0.50        -4.0817   0.0000                                         
     4  3  2.50        -1.3606   0.0000                                         
   Description                                                                  
     l       E           TYP  RCUT    TYP  RCUT                                 
     2     -5.0393973     23  2.200                                             
     2     10.8846608     23  2.200                                             
     0     -4.6097109     23  2.200                                             
     0      8.2520465     23  2.200                                             
     1     -2.7211652     23  2.200                                             
     1     21.7055443     23  2.200                                             
     3      2.7211652     23  2.300                                             
  local pseudopotential read in
  partial core-charges read in
  partial kinetic energy density read in
  atomic valenz-charges read in
  non local Contribution for L=           2  read in
    real space projection operators read in
  non local Contribution for L=           2  read in
    real space projection operators read in
  non local Contribution for L=           0  read in
    real space projection operators read in
  non local Contribution for L=           0  read in
    real space projection operators read in
  non local Contribution for L=           1  read in
    real space projection operators read in
  non local Contribution for L=           1  read in
    real space projection operators read in
    PAW grid and wavefunctions read in
 
   number of l-projection  operators is LMAX  =           6
   number of lm-projection operators is LMMAX =          18
 
 POTCAR:    PAW_PBE Fe 06Sep2000                  
   VRHFIN =Fe:  d7 s1                                                           
   LEXCH  = PE                                                                  
   EATOM  =   594.3153 eV,   43.6809 Ry                                         
                                                                                
   TITEL  = PAW_PBE Fe 06Sep2000                                                
   LULTRA =        F    use ultrasoft PP ?                                      
   IUNSCR =        1    unscreen: 0-lin 1-nonlin 2-no                           
   RPACOR =    2.000    partial core radius                                     
   POMASS =   55.847; ZVAL   =    8.000    mass and valenz                      
   RCORE  =    2.300    outmost cutoff radius                                   
   RWIGS  =    2.460; RWIGS  =    1.302    wigner-seitz radius (au A)           
   ENMAX  =  267.882; ENMIN  =  200.911 eV                                      
   RCLOC  =    1.701    cutoff for local pot                                    
   LCOR   =        T    correct aug charges                                     
   LPAW   =        T    paw PP                                                  
   EAUG   =  511.368                                                            
   DEXC   =    0.000                                                            
   RMAX   =    2.356    core radius for proj-oper                               
   RAUG   =    1.300    factor for augmentation sphere                          
   RDEP   =    2.442    radius for radial grids                                 
   RDEPT  =    1.890    core radius for aug-charge                              
                                                                                
   Atomic configuration                                                         
    9 entries                                                                   
     n  l   j            E        occ.                                          
     1  0  0.50     -6993.8440   2.0000                                         
     2  0  0.50      -814.6047   2.0000                                         
     2  1  1.50      -693.3689   6.0000                                         
     3  0  0.50       -89.4732   2.0000                                         
     3  1  1.50       -55.6373   6.0000                                         
     3  2  2.50        -3.8151   7.0000                                         
     4  0  0.50        -4.2551   1.0000                                         
     4  1  1.50        -3.4015   0.0000                                         
     4  3  2.50        -1.3606   0.0000                                         
   Description                                                                  
     l       E           TYP  RCUT    TYP  RCUT                                 
     2     -3.8151135     23  2.300                                             
     2     -5.1756961     23  2.300                                             
     0     -4.2550963     23  2.300                                             
     0      7.2035603     23  2.300                                             
     1     -2.7211652     23  2.300                                             
     1     18.4316424     23  2.300                                             
  local pseudopotential read in
  partial core-charges read in
  partial kinetic energy density read in
  atomic valenz-charges read in
  non local Contribution for L=           2  read in
    real space projection operators read in
  non local Contribution for L=           2  read in
    real space projection operators read in
  non local Contribution for L=           0  read in
    real space projection operators read in
  non local Contribution for L=           0  read in
    real space projection operators read in
  non local Contribution for L=           1  read in
    real space projection operators read in
  non local Contribution for L=           1  read in
    real space projection operators read in
    PAW grid and wavefunctions read in
 
   number of l-projection  operators is LMAX  =           6
   number of lm-projection operators is LMMAX =          18
 

 ----------------------------------------------------------------------------- 
|                                                                             |
|  ADVICE TO THIS USER RUNNING 'VASP/VAMP'   (HEAR YOUR MASTER'S VOICE ...):  |
|                                                                             |
|      You have a (more or less) 'large supercell' and for larger cells       |
|      it might be more efficient to use real space projection opertators     |
|      So try LREAL= Auto  in the INCAR   file.                               |
|      Mind:          For very  accurate calculation you might also keep the  |
|      reciprocal projection scheme          (i.e. LREAL=.FALSE.)             |
|                                                                             |
 ----------------------------------------------------------------------------- 

  PAW_PBE C 08Apr2002                   :
 energy of atom  1       EATOM= -147.1560
 kinetic energy error for atom=    0.0076 (will be added to EATOM!!)
  PAW_PBE N 08Apr2002                   :
 energy of atom  2       EATOM= -264.5486
 kinetic energy error for atom=    0.0138 (will be added to EATOM!!)
  PAW_PBE Cu 22Jun2005                  :
 energy of atom  3       EATOM=-1390.9808
 kinetic energy error for atom=    0.0043 (will be added to EATOM!!)
  PAW_PBE Fe 06Sep2000                  :
 energy of atom  4       EATOM= -594.3153
 kinetic energy error for atom=    0.0026 (will be added to EATOM!!)
 
 
 POSCAR:  C  N Cu Fe                             
  positions in cartesian coordinates
  No initial velocities read in
 exchange correlation table for  LEXCH =        8
   RHO(1)=    0.500       N(1)  =     2000
   RHO(2)=  100.500       N(2)  =     4000

 VTST: version 3.2, (02/03/18)

 CHAIN: initializing optimizer
 
 OPT: Using VASP Conjugate-Gradient optimizer
 CHAIN: Read ICHAIN            0
 
 POSCAR:  C  N Cu Fe                             
  positions in cartesian coordinates
  No initial velocities read in
 


--------------------------------------------------------------------------------------------------------


 ion  position               nearest neighbor table
   1  0.227  0.002  0.500-  18 1.44   4 1.46   3 1.47
   2  0.057  0.100  0.500-   7 1.42   3 1.43  33 1.45
   3  0.114  0.000  0.500-   2 1.43  16 1.43   1 1.47
   4  0.282  0.105  0.500-   5 1.46  20 1.46   1 1.46
   5  0.222  0.205  0.500-  53 1.37   4 1.46   7 1.46
   6  0.051  0.298  0.500-  10 1.41  37 1.43   7 1.43
   7  0.110  0.201  0.500-   2 1.42   6 1.43   5 1.46
   8  0.210  0.397  0.500-  53 1.37  10 1.40  11 1.42
   9  0.048  0.500  0.500-  41 1.41  14 1.42  10 1.42
  10  0.102  0.399  0.500-   8 1.40   6 1.41   9 1.42
  11  0.264  0.497  0.499-  55 1.33   8 1.42  12 1.43
  12  0.211  0.599  0.500-  14 1.41  50 1.42  11 1.43
  13  0.052  0.701  0.500-  14 1.41  45 1.43  17 1.44
  14  0.103  0.600  0.500-  12 1.41  13 1.41   9 1.42
  15  0.223  0.797  0.500-  50 1.43  17 1.45  18 1.46
  16  0.058  0.901  0.500-  17 1.43   3 1.43  49 1.45
  17  0.112  0.800  0.500-  16 1.43  13 1.44  15 1.45
  18  0.280  0.899  0.500-   1 1.44  15 1.46  28 1.46
  19  0.558  0.999  0.500-  29 1.43  22 1.43  21 1.44
  20  0.394  0.104  0.500-  54 1.39  21 1.46   4 1.46
  21  0.447  0.000  0.500-  19 1.44  28 1.45  20 1.46
  22  0.614  0.099  0.500-  23 1.41  19 1.43  31 1.44
  23  0.558  0.197  0.500-  54 1.38  22 1.41  24 1.46
  24  0.612  0.301  0.500-  51 1.42  35 1.44  23 1.46
  25  0.609  0.502  0.500-  56 1.40  51 1.44  39 1.45
  26  0.616  0.698  0.500-  56 1.37  43 1.42  27 1.46
  27  0.559  0.800  0.500-  29 1.42  52 1.42  26 1.46
  28  0.392  0.898  0.500-  52 1.44  21 1.45  18 1.46
  29  0.614  0.900  0.500-  27 1.42  19 1.43  47 1.44
  30  0.891  1.000  0.500-  33 1.42  49 1.42  32 1.44
  31  0.724  0.099  0.500-  36 1.42  32 1.42  22 1.44
  32  0.780  1.000  0.500-  31 1.42  47 1.42  30 1.44
  33  0.946  0.100  0.500-  30 1.42  34 1.43   2 1.45
  34  0.888  0.199  0.500-  37 1.42  33 1.43  36 1.43
  35  0.722  0.299  0.500-  40 1.42  36 1.43  24 1.44
  36  0.778  0.199  0.500-  31 1.42  35 1.43  34 1.43
  37  0.941  0.299  0.500-  34 1.42  38 1.43   6 1.43
  38  0.886  0.399  0.500-  41 1.42  37 1.43  40 1.43
  39  0.721  0.500  0.500-  40 1.43  44 1.43  25 1.45
  40  0.776  0.400  0.500-  35 1.42  39 1.43  38 1.43
  41  0.940  0.499  0.500-   9 1.41  42 1.42  38 1.42
  42  0.887  0.600  0.500-  41 1.42  44 1.42  45 1.43
  43  0.725  0.700  0.500-  26 1.42  44 1.42  48 1.43
  44  0.778  0.600  0.500-  43 1.42  42 1.42  39 1.43
  45  0.943  0.701  0.500-  46 1.42  13 1.43  42 1.43
  46  0.889  0.801  0.500-  45 1.42  48 1.43  49 1.43
  47  0.724  0.901  0.500-  48 1.42  32 1.42  29 1.44
  48  0.780  0.801  0.500-  47 1.42  43 1.43  46 1.43
  49  0.947  0.901  0.500-  30 1.42  46 1.43  16 1.45
  50  0.273  0.694  0.500-  12 1.42  15 1.43  58 1.93
  51  0.556  0.399  0.499-  24 1.42  25 1.44  57 1.95
  52  0.450  0.798  0.500-  27 1.42  28 1.44  58 1.93
  53  0.268  0.305  0.499-   8 1.37   5 1.37  57 1.98
  54  0.453  0.199  0.499-  23 1.38  20 1.39  57 1.98
  55  0.366  0.502  0.499-  11 1.33  58 1.87  57 1.92
  56  0.561  0.604  0.500-  26 1.37  25 1.40  58 1.98
  57  0.413  0.354  0.499-  55 1.92  51 1.95  53 1.98  54 1.98
  58  0.414  0.646  0.499-  55 1.87  50 1.93  52 1.93  56 1.98
 
  LATTYP: Found a triclinic cell.
 ALAT       =    13.0365000000
 B/A-ratio  =     0.9439573505
 C/A-ratio  =     1.5190503586
 COS(alpha) =     0.0000331613
 COS(beta)  =     0.0002094395
 COS(gamma) =     0.0002321288
  
  Lattice vectors:
  
 A1 = (  13.0365000000,   0.0000000000,   0.0000000000)
 A2 = (   0.0028565537,  12.3058996685,   0.0000000000)
 A3 = (   0.0041475515,   0.0006557329,  19.8030995548)


Analysis of symmetry for initial positions (statically):
=====================================================================
 Subroutine PRICEL returns:
 Original cell was already a primitive cell.
 

 Routine SETGRP: Setting up the symmetry group for a 
 triclinic supercell.


 Subroutine GETGRP returns: Found  1 space group operations
 (whereof  1 operations were pure point group operations)
 out of a pool of  2 trial point group operations.


The static configuration has the point symmetry C_1 .


Analysis of symmetry for dynamics (positions and initial velocities):
=====================================================================
 Subroutine PRICEL returns:
 Original cell was already a primitive cell.
 

 Routine SETGRP: Setting up the symmetry group for a 
 triclinic supercell.


 Subroutine GETGRP returns: Found  1 space group operations
 (whereof  1 operations were pure point group operations)
 out of a pool of  2 trial point group operations.


The dynamic configuration has the point symmetry C_1 .


Analysis of structural, dynamic, and magnetic symmetry:
=====================================================================
 Subroutine PRICEL returns:
 Original cell was already a primitive cell.
 

 Routine SETGRP: Setting up the symmetry group for a 
 triclinic supercell.


 Subroutine GETGRP returns: Found  1 space group operations
 (whereof  1 operations were pure point group operations)
 out of a pool of  2 trial point group operations.


The magnetic configuration has the point symmetry C_1 .


 Subroutine INISYM returns: Found  1 space group operations
 (whereof  1 operations are pure point group operations),
 and found     1 'primitive' translations

 
 
 KPOINTS: KPOINTS created by Atomic Simulation Env

Automatic generation of k-mesh.
Space group operators:
 irot       det(A)        alpha          n_x          n_y          n_z        tau_x        tau_y        tau_z
    1     1.000000     0.000000     1.000000     0.000000     0.000000     0.000000     0.000000     0.000000
 
 Subroutine IBZKPT returns following result:
 ===========================================
 
 Found      1 irreducible k-points:
 
 Following reciprocal coordinates:
            Coordinates               Weight
  0.000000  0.000000  0.000000      1.000000
 
 Following cartesian coordinates:
            Coordinates               Weight
  0.000000  0.000000  0.000000      1.000000
 
 
 Subroutine IBZKPT_HF returns following result:
 ==============================================
 
 Found      1 k-points in 1st BZ
 the following      1 k-points will be used (e.g. in the exchange kernel)
 Following reciprocal coordinates:   # in IRBZ
  0.000000  0.000000  0.000000    1.00000000   1 t-inv F


--------------------------------------------------------------------------------------------------------




 Dimension of arrays:
   k-points           NKPTS =      1   k-points in BZ     NKDIM =      1   number of bands    NBANDS=    157
   number of dos      NEDOS =    301   number of ions     NIONS =     58
   non local maximal  LDIM  =      6   non local SUM 2l+1 LMDIM =     18
   total plane-waves  NPLWV = ******
   max r-space proj   IRMAX =      1   max aug-charges    IRDMAX=  14148
   dimension x,y,z NGX =    96 NGY =   90 NGZ =  144
   dimension x,y,z NGXF=   192 NGYF=  180 NGZF=  288
   support grid    NGXF=   192 NGYF=  180 NGZF=  288
   ions per type =              52   4   1   1
   NGX,Y,Z   is equivalent  to a cutoff of  12.24, 12.16, 12.09 a.u.
   NGXF,Y,Z  is equivalent  to a cutoff of  24.48, 24.32, 24.18 a.u.

 SYSTEM =  unknown system                          
 POSCAR =   C  N Cu Fe                             

 Startparameter for this run:
   NWRITE =      2    write-flag & timer
   PREC   = accura    normal or accurate (medium, high low for compatibility)
   ISTART =      1    job   : 0-new  1-cont  2-samecut
   ICHARG =      0    charge: 1-file 2-atom 10-const
   ISPIN  =      2    spin polarized calculation?
   LNONCOLLINEAR =      F non collinear calculations
   LSORBIT =      F    spin-orbit coupling
   INIWAV =      1    electr: 0-lowe 1-rand  2-diag
   LASPH  =      T    aspherical Exc in radial PAW
   METAGGA=      F    non-selfconsistent MetaGGA calc.

 Electronic Relaxation 1
   ENCUT  =  500.0 eV  36.75 Ry    6.06 a.u.  23.77 22.44 36.11*2*pi/ulx,y,z
   ENINI  =  500.0     initial cutoff
   ENAUG  =  644.9 eV  augmentation charge cutoff
   NELM   =    250;   NELMIN=  2; NELMDL=  0     # of ELM steps 
   EDIFF  = 0.1E-03   stopping-criterion for ELM
   LREAL  =      F    real-space projection
   NLSPLINE    = F    spline interpolate recip. space projectors
   LCOMPAT=      F    compatible to vasp.4.4
   GGA_COMPAT  = T    GGA compatible to vasp.4.4-vasp.4.6
   LMAXPAW     = -100 max onsite density
   LMAXMIX     =    2 max onsite mixed and CHGCAR
   VOSKOWN=      0    Vosko Wilk Nusair interpolation
   ROPT   =    0.00000   0.00000   0.00000   0.00000
 Ionic relaxation
   EDIFFG = -.3E-01   stopping-criterion for IOM
   NSW    =      0    number of steps for IOM
   NBLOCK =      1;   KBLOCK =      1    inner block; outer block 
   IBRION =     -1    ionic relax: 0-MD 1-quasi-New 2-CG
   NFREE  =      1    steps in history (QN), initial steepest desc. (CG)
   ISIF   =      2    stress and relaxation
   IWAVPR =     10    prediction:  0-non 1-charg 2-wave 3-comb
   ISYM   =      3    0-nonsym 1-usesym 2-fastsym
   LCORR  =      T    Harris-Foulkes like correction to forces

   POTIM  = 0.5000    time-step for ionic-motion
   TEIN   =    0.0    initial temperature
   TEBEG  =    0.0;   TEEND  =   0.0 temperature during run
   SMASS  =  -3.00    Nose mass-parameter (am)
   estimated Nose-frequenzy (Omega)   =  0.10E-29 period in steps =****** mass=  -0.388E-26a.u.
   SCALEE = 1.0000    scale energy and forces
   NPACO  =    256;   APACO  = 16.0  distance and # of slots for P.C.
   PSTRESS=    0.0 pullay stress

  Mass of Ions in am
   POMASS =  12.01 14.00 63.55 55.85
  Ionic Valenz
   ZVAL   =   4.00  5.00 11.00  8.00
  Atomic Wigner-Seitz radii
   RWIGS  =  -1.00 -1.00 -1.00 -1.00
  virtual crystal weights 
   VCA    =   1.00  1.00  1.00  1.00
   NELECT =     247.0000    total number of electrons
   NUPDOWN=      -1.0000    fix difference up-down

 DOS related values:
   EMIN   =  10.00;   EMAX   =-10.00  energy-range for DOS
   EFERMI =   0.00
   ISMEAR =     0;   SIGMA  =   0.10  broadening in eV -4-tet -1-fermi 0-gaus

 Electronic relaxation 2 (details)
   IALGO  =     53    algorithm
   LDIAG  =      T    sub-space diagonalisation (order eigenvalues)
   LSUBROT=      F    optimize rotation matrix (better conditioning)
   TURBO    =      0    0=normal 1=particle mesh
   IRESTART =      0    0=no restart 2=restart with 2 vectors
   NREBOOT  =      0    no. of reboots
   NMIN     =      0    reboot dimension
   EREF     =   0.00    reference energy to select bands
   IMIX   =      4    mixing-type and parameters
     AMIX     =   0.40;   BMIX     =  1.00
     AMIX_MAG =   1.60;   BMIX_MAG =  1.00
     AMIN     =   0.10
     WC   =   100.;   INIMIX=   1;  MIXPRE=   1;  MAXMIX= -45

 Intra band minimization:
   WEIMIN = 0.0000     energy-eigenvalue tresh-hold
   EBREAK =  0.16E-06  absolut break condition
   DEPER  =   0.30     relativ break condition  

   TIME   =   0.20     timestep for ELM

  volume/ion in A,a.u.               =      54.77       369.64
  Fermi-wavevector in a.u.,A,eV,Ry     =   0.698722  1.320394  6.642540  0.488213
  Thomas-Fermi vector in A             =   1.782404
 
 Write flags
   LWAVE        =      T    write WAVECAR
   LDOWNSAMPLE  =      F    k-point downsampling of WAVECAR
   LCHARG       =      T    write CHGCAR
   LVTOT        =      F    write LOCPOT, total local potential
   LVHAR        =      F    write LOCPOT, Hartree potential only
   LELF         =      F    write electronic localiz. function (ELF)
   LORBIT       =     11    0 simple, 1 ext, 2 COOP (PROOUT), +10 PAW based schemes


 Dipole corrections
   LMONO  =      F    monopole corrections only (constant potential shift)
   LDIPOL =      T    correct potential (dipole corrections)
   IDIPOL =      3    1-x, 2-y, 3-z, 4-all directions 
   EPSILON=  1.0000000 bulk dielectric constant

 Exchange correlation treatment:
   GGA     =    PE    GGA type
   LEXCH   =     8    internal setting for exchange type
   VOSKOWN=      0    Vosko Wilk Nusair interpolation
   EXXOEP  =     0    0=HF, 1=EXX-LHF (local Hartree Fock) 2=EXX OEP
   LHFCALC =     T    Hartree Fock is set to
   LSYMGRAD=     F    symmetrize gradient (conserves proper symmetry)
   PRECFOCK=normal    Normal, Fast or Accurate (Low or Medium for compatibility)
   LRHFCALC=     F    long range Hartree Fock
   LRSCOR  =     F    long range correlation only (use DFT for short range part)
   LTHOMAS =     F    Thomas Fermi screening in HF
   LMODELHF=     F    short range full HF, long range fraction AEXX
   ENCUT4O =  -1.0   cutoff for four orbital integrals eV
   LMAXFOCK=     4    L truncation for augmentation on plane wave grid
   LMAXFOCKAE=  -1    L truncation for all-electron charge restoration on plane wave grid
   NMAXFOCKAE=   1    number of basis functions for all-electron charge restoration
   LFOCKAEDFT=     F  apply the AE augmentation even for DFT
   NKREDX  =     1    reduce k-point grid by
   NKREDY  =     1    reduce k-point grid by
   NKREDZ  =     1    reduce k-point grid by
   SHIFTRED=     F    shift reduced grid of Gamma
   HFKIDENT=     F    idential grid for each k-point
   ODDONLY =     F    use only odd q-grid points
   EVENONLY=     F    use only even q-grid points
   HFALPHA =   -1.0000 decay constant for conv. correction
   MCALPHA =    0.0000 extent of test-charge in conv. correction in multipole expansion
   AEXX    =    0.2500 exact exchange contribution
   HFSCREEN=    0.2000 screening length (either q_TF or 0.3 A-1)
   HFSCREENC=   0.2000 screening length for correlation (either q_TF or 0.3 A-1)
   HFRCUT  =    0.0000 spherical cutoff for potential kernel
   ALDAX   =    0.7500 LDA exchange part
   AGGAX   =    0.7500 GGA exchange part
   ALDAC   =    1.0000 LDA correlation
   AGGAC   =    1.0000 GGA correlation
   ENCUTFOCK=  -1.0 apply spherical cutoff to Coloumb kernel
   NBANDSGWLOW=     1    first orbital included in HF term
   NBLOCK_FOCK=    64    blocking factor in FOCK_ACC
 Linear response parameters
   LEPSILON=     F    determine dielectric tensor
   LRPA    =     F    only Hartree local field effects (RPA)
   LNABLA  =     F    use nabla operator in PAW spheres
   LVEL    =     F    velocity operator in full k-point grid
   LINTERFAST=   F  fast interpolation
   KINTER  =     0    interpolate to denser k-point grid
   CSHIFT  =0.1000    complex shift for real part using Kramers Kronig
   OMEGAMAX=  -1.0    maximum frequency
   DEG_THRESHOLD= 0.2000000E-02 threshold for treating states as degnerate
   RTIME   =   -0.100 relaxation time in fs
  (WPLASMAI=    0.000 imaginary part of plasma frequency in eV, 0.658/RTIME)
   DFIELD  = 0.0000000 0.0000000 0.0000000 field for delta impulse in time
 
 Orbital magnetization related:
   ORBITALMAG=     F  switch on orbital magnetization
   LCHIMAG   =     F  perturbation theory with respect to B field
   DQ        =  0.001000  dq finite difference perturbation B field
   LLRAUG    =     F  two centre corrections for induced B field



--------------------------------------------------------------------------------------------------------


 Static calculation
 charge density and potential will be updated during run
 spin polarized calculation
 Conjugate gradient for all bands (Freysoldt, et al. PRB 79, 241103 (2009))
 perform sub-space diagonalisation
    before iterative eigenvector-optimisation
 modified Broyden-mixing scheme, WC =      100.0
 initial mixing is a Kerker type mixing with AMIX =  0.4000 and BMIX =      1.0000
 Hartree-type preconditioning will be used
 using additional bands           33
 reciprocal scheme for non local part
 use partial core corrections
 no Harris-corrections to forces 
 use gradient corrections 
 use of overlap-Matrix (Vanderbilt PP)
 Gauss-broadening in eV      SIGMA  =   0.10


--------------------------------------------------------------------------------------------------------


  energy-cutoff  :      500.00
  volume of cell :     3176.93
      direct lattice vectors                 reciprocal lattice vectors
    13.036500000  0.000000000  0.000000000     0.076707705 -0.000017806 -0.000016065
     0.002856554 12.305899668  0.000000000     0.000000000  0.081261836 -0.000002691
     0.004147552  0.000655733 19.803099555     0.000000000  0.000000000  0.050497146

  length of vectors
    13.036500000 12.305900000 19.803100000     0.076707709  0.081261836  0.050497146


 
 old parameters found on file WAVECAR:
  energy-cutoff  :      500.00
  volume of cell :     3176.93
      direct lattice vectors                 reciprocal lattice vectors
    13.036500000  0.000000000  0.000000000     0.076707705 -0.000017806 -0.000016065
     0.002856554 12.305899668  0.000000000     0.000000000  0.081261836 -0.000002691
     0.004147552  0.000655733 19.803099555     0.000000000  0.000000000  0.050497146

  length of vectors

 
 k-points in units of 2pi/SCALE and weight: KPOINTS created by Atomic Simulation Env
   0.00000000  0.00000000  0.00000000       1.000
 
 k-points in reciprocal lattice and weights: KPOINTS created by Atomic Simulation Env
   0.00000000  0.00000000  0.00000000       1.000
 
 position of ions in fractional coordinates (direct lattice) 
   0.22663000  0.00155000  0.49977000
   0.05695000  0.09966000  0.49997000
   0.11423000  0.00049000  0.49991000
   0.28208000  0.10508000  0.49963000
   0.22200000  0.20481000  0.49964000
   0.05097000  0.29842000  0.50003000
   0.11031000  0.20063000  0.49988000
   0.21004000  0.39747000  0.49961000
   0.04834000  0.49957000  0.50014000
   0.10241000  0.39919000  0.49997000
   0.26414000  0.49735000  0.49936000
   0.21073000  0.59901000  0.49971000
   0.05228000  0.70106000  0.50011000
   0.10295000  0.59959000  0.50005000
   0.22285000  0.79728000  0.49980000
   0.05768000  0.90060000  0.50002000
   0.11163000  0.79952000  0.49999000
   0.28011000  0.89916000  0.49976000
   0.55757000  0.99895000  0.49991000
   0.39439000  0.10435000  0.49959000
   0.44707000  0.00002000  0.49978000
   0.61374000  0.09851000  0.49990000
   0.55823000  0.19699000  0.49963000
   0.61229000  0.30058000  0.49960000
   0.60936000  0.50164000  0.49956000
   0.61611000  0.69843000  0.49978000
   0.55905000  0.80029000  0.49984000
   0.39221000  0.89765000  0.49976000
   0.61429000  0.89986000  0.49999000
   0.89087000  0.99993000  0.50011000
   0.72408000  0.09908000  0.50003000
   0.78015000  0.99996000  0.50011000
   0.94592000  0.09968000  0.50008000
   0.88825000  0.19864000  0.50010000
   0.72245000  0.29900000  0.49985000
   0.77831000  0.19899000  0.50002000
   0.94127000  0.29897000  0.50013000
   0.88577000  0.39914000  0.50014000
   0.72086000  0.50002000  0.49983000
   0.77595000  0.39952000  0.49995000
   0.94015000  0.49942000  0.50020000
   0.88693000  0.60024000  0.50016000
   0.72476000  0.70038000  0.49996000
   0.77764000  0.59958000  0.49999000
   0.94263000  0.70070000  0.50017000
   0.88943000  0.80121000  0.50013000
   0.72450000  0.90054000  0.50008000
   0.77966000  0.80106000  0.50009000
   0.94667000  0.90051000  0.50010000
   0.27270000  0.69351000  0.49956000
   0.55630000  0.39945000  0.49944000
   0.44992000  0.79822000  0.49971000
   0.26786000  0.30485000  0.49944000
   0.45274000  0.19880000  0.49939000
   0.36640000  0.50213000  0.49875000
   0.56100000  0.60366000  0.49951000
   0.41252000  0.35436000  0.49911000
   0.41408000  0.64565000  0.49916000
 
 position of ions in cartesian coordinates  (Angst):
   2.95653924  0.01940186  9.89699506
   0.74478701  1.22673381  9.90095568
   1.49123420  0.00635770  9.89976750
   3.67970833  1.29343156  9.89422263
   2.89676033  2.52069894  9.89442066
   0.66739676  3.67265447  9.90214387
   1.44070270  2.46926044  9.89917341
   2.74139401  4.89155355  9.89382657
   0.63368581  6.14798626  9.90432221
   1.33828192  4.91271994  9.90095568
   3.44695294  6.12066665  9.88887579
   2.75096532  7.37168464  9.89580688
   0.68562507  8.62750196  9.90372812
   1.34589442  7.37882228  9.90253993
   2.90953444  9.81157542  9.89758916
   0.75659179 11.08302112  9.90194584
   1.45962210  9.83914076  9.90135175
   3.65629529 11.06530045  9.89679703
   7.27368826 12.29330628  9.89976750
   5.14383539  1.28444823  9.89343051
   5.83030098  0.00057384  9.89719310
   8.00337627  1.21258198  9.89956947
   7.28000035  2.42446680  9.89422263
   7.98504932  3.69923493  9.89362854
   7.94742655  6.17345909  9.89283641
   8.03598598  8.59513723  9.89719310
   7.29241451  9.84861621  9.89838128
   5.11768263 11.04671855  9.89679703
   8.01283582 11.07391474  9.90135175
  11.61875734 12.30536619  9.90372812
   9.44182585  1.21959643  9.90214387
  10.17535615 12.30573537  9.90372812
  12.33384493  1.22698000  9.90313403
  11.58231274  2.44477184  9.90353009
   9.42114669  3.67979177  9.89857931
  10.14908060  2.44907885  9.90194584
  12.27379469  3.67942278  9.90412418
  11.55055513  4.91210475  9.90432221
   9.40099279  6.15352371  9.89818325
  10.11888699  4.91678087  9.90055962
  12.25976670  6.14614041  9.90551040
  11.56625200  7.38682119  9.90471827
   9.45240802  8.61913385  9.90075765
  10.14149033  7.37869918  9.90135175
  12.29267206  8.62307188  9.90491630
  11.59941721  9.85993783  9.90412418
   9.44959080 11.08228281  9.90313403
  10.16840001  9.85809191  9.90333206
  12.34591000 11.08191364  9.90353009
   3.55910655  8.53459206  9.89283641
   7.25541745  4.91591912  9.89046004
   5.86973481  9.82314291  9.89580688
   3.49489916  3.75178101  9.89046004
   5.90478414  2.44674032  9.88946989
   4.78007655  6.17948845  9.87679590
   7.31727263  7.42890694  9.89184626
   5.38089931  4.36104589  9.88392502
   5.40206855  7.94563144  9.88491517
 


--------------------------------------------------------------------------------------------------------


 k-point  1 :   0.0000 0.0000 0.0000  plane waves:   80707

 maximum and minimum number of plane-waves per node :      2528     2517

 maximum number of plane-waves:     80707
 maximum index in each direction: 
   IXMAX=   23   IYMAX=   22   IZMAX=   36
   IXMIN=  -23   IYMIN=  -22   IZMIN=  -36


 parallel 3D FFT for wavefunctions:
    minimum data exchange during FFTs selected (reduces bandwidth)
 parallel 3D FFT for charge:
    minimum data exchange during FFTs selected (reduces bandwidth)


 FFT grid for exact exchange (Hartree Fock) 
  NGX = 72; NGY = 70; NGZ =112

 
 Radii for the augmentation spheres in the non-local exchange
 for species   1 augmentation radius   0.874 (default was   0.699)
       energy cutoff for augmentation   2000.0
 for species   2 augmentation radius   0.886 (default was   0.709)
       energy cutoff for augmentation   2000.0
 for species   3 augmentation radius   1.179 (default was   0.943)
       energy cutoff for augmentation   2000.0
 for species   4 augmentation radius   1.263 (default was   1.010)
       energy cutoff for augmentation   2000.0

 real space projection operators:
  total allocation   :       2445.87 KBytes
  max/ min on nodes  :        124.34         43.80

 Maximum index for augmentation-charges in exchange          143
  SETUP_FOCK is finished

 total amount of memory used by VASP MPI-rank0   120023. kBytes
=======================================================================

   base      :      30000. kBytes
   nonl-proj :       3785. kBytes
   fftplans  :      12971. kBytes
   grid      :      33177. kBytes
   one-center:         62. kBytes
   HF        :         23. kBytes
   nonlr-proj:       1677. kBytes
   wavefun   :      38328. kBytes
 
     INWAV:  cpu time    1.7769: real time    1.7775
 Broyden mixing: mesh for mixing (old mesh)
   NGX = 47   NGY = 45   NGZ = 73
  (NGX  =192   NGY  =180   NGZ  =288)
  gives a total of 154395 points

 charge density for first step will be calculated from the start-wavefunctions


--------------------------------------------------------------------------------------------------------


 Maximum index for augmentation-charges          210 (set IRDMAX)


--------------------------------------------------------------------------------------------------------


 initial charge from wavefunction
 First call to EWALD:  gamma=   0.121
 Maximum number of real-space cells 3x 3x 2
 Maximum number of reciprocal cells 2x 2x 4

    FEWALD:  cpu time    0.0034: real time    0.0034


--------------------------------------- Iteration      1(   1)  ---------------------------------------


    POTLOK:  cpu time    1.2514: real time    1.2520
    SETDIJ:  cpu time    2.0866: real time    2.0877
    TRIAL :  cpu time   63.7136: real time   63.7491
    CORREC:  cpu time    0.0011: real time    0.0014
    CHARGE:  cpu time    0.1705: real time    0.1705
    --------------------------------------------
      LOOP:  cpu time   67.2315: real time   67.2718

 eigenvalue-minimisations  :     0
 total energy-change (2. order) :-0.5706911E+03  (-0.8054798E+01)
 number of electron     247.0000034 magnetization       2.9076605
 augmentation part       16.7862348 magnetization       1.7706612

 DIPCOR: dipole corrections for dipol
 direction  3 min pos     1,
 dipolmoment           0.000000      0.000000      0.000662 electrons x Angstroem
 Tr[quadrupol]     -6688.791070

 energy correction for charged system         0.000000 eV
 dipol+quadrupol energy correction            0.000000 eV
 added-field ion interaction          0.000000 eV  (added to PSCEN)


 Free energy of the ion-electron system (eV)
  ---------------------------------------------------
  alpha Z        PSCENC =       101.61517540
  Ewald energy   TEWEN  =     39191.68581624
  -Hartree energ DENC   =    -48361.22167430
  -exchange      EXHF   =       563.38485475
  -V(xc)+E(xc)   XCENC  =       646.54480784
  PAW double counting   =     28407.94351832   -28545.83431327
  entropy T*S    EENTRO =        -0.02646003
  eigenvalues    EBANDS =     -3160.13911470
  atomic energy  EATOM  =     10585.36259583
  ---------------------------------------------------
  free energy    TOTEN  =      -570.69112716 eV

  energy without entropy =     -570.66466713  energy(sigma->0) =     -570.67789714
  exchange ACFDT corr.  =        -0.13884634  see jH, gK, PRB 81, 115126


--------------------------------------------------------------------------------------------------------




--------------------------------------- Iteration      1(   2)  ---------------------------------------


    POTLOK:  cpu time    1.2691: real time    1.2693
    SETDIJ:  cpu time    2.0805: real time    2.0817
    TRIAL :  cpu time   63.4564: real time   63.4830
    CORREC:  cpu time    0.0011: real time    0.0014
    CHARGE:  cpu time    0.1703: real time    0.1703
    --------------------------------------------
      LOOP:  cpu time   66.9798: real time   67.0081

 eigenvalue-minimisations  :     0
 total energy-change (2. order) :-0.7240473E+01  (-0.8970831E+01)
 number of electron     247.0000034 magnetization       2.9339403
 augmentation part       16.7266060 magnetization       1.8089751

 DIPCOR: dipole corrections for dipol
 direction  3 min pos     1,
 dipolmoment           0.000000      0.000000      0.000386 electrons x Angstroem
 Tr[quadrupol]     -6688.611654

 energy correction for charged system         0.000000 eV
 dipol+quadrupol energy correction            0.000000 eV
 added-field ion interaction          0.000000 eV  (added to PSCEN)


 Free energy of the ion-electron system (eV)
  ---------------------------------------------------
  alpha Z        PSCENC =       101.61517539
  Ewald energy   TEWEN  =     39191.68581624
  -Hartree energ DENC   =    -48350.21114364
  -exchange      EXHF   =       563.23482299
  -V(xc)+E(xc)   XCENC  =       646.22776276
  PAW double counting   =     28132.54701780   -28271.76785879
  entropy T*S    EENTRO =        -0.01812097
  eigenvalues    EBANDS =     -3176.59932837
  atomic energy  EATOM  =     10585.36259583
  ---------------------------------------------------
  free energy    TOTEN  =      -577.93159982 eV

  energy without entropy =     -577.91347885  energy(sigma->0) =     -577.92253933
  exchange ACFDT corr.  =        -0.08819218  see jH, gK, PRB 81, 115126


--------------------------------------------------------------------------------------------------------




--------------------------------------- Iteration      1(   3)  ---------------------------------------


    POTLOK:  cpu time    1.2702: real time    1.2704
    SETDIJ:  cpu time    2.0873: real time    2.0876
    TRIAL :  cpu time   63.4668: real time   63.4815
    CORREC:  cpu time    0.0011: real time    0.0015
    CHARGE:  cpu time    0.1704: real time    0.1705
    --------------------------------------------
      LOOP:  cpu time   66.9981: real time   67.0136

 eigenvalue-minimisations  :     0
 total energy-change (2. order) :-0.7659082E+01  (-0.6549221E+01)
 number of electron     247.0000034 magnetization       2.9509038
 augmentation part       16.6908033 magnetization       1.8334131

 DIPCOR: dipole corrections for dipol
 direction  3 min pos     1,
 dipolmoment           0.000000      0.000000      0.000931 electrons x Angstroem
 Tr[quadrupol]     -6688.376269

 energy correction for charged system         0.000000 eV
 dipol+quadrupol energy correction            0.000000 eV
 added-field ion interaction          0.000000 eV  (added to PSCEN)


 Free energy of the ion-electron system (eV)
  ---------------------------------------------------
  alpha Z        PSCENC =       101.61517541
  Ewald energy   TEWEN  =     39191.68581624
  -Hartree energ DENC   =    -48328.85168133
  -exchange      EXHF   =       563.01180302
  -V(xc)+E(xc)   XCENC  =       645.73247602
  PAW double counting   =     27796.06783391   -27934.10904380
  entropy T*S    EENTRO =        -0.01094079
  eigenvalues    EBANDS =     -3206.08753659
  atomic energy  EATOM  =     10585.36259583
  ---------------------------------------------------
  free energy    TOTEN  =      -585.59068226 eV

  energy without entropy =     -585.57974147  energy(sigma->0) =     -585.58521186
  exchange ACFDT corr.  =        -0.04852695  see jH, gK, PRB 81, 115126


--------------------------------------------------------------------------------------------------------




--------------------------------------- Iteration      1(   4)  ---------------------------------------


    POTLOK:  cpu time    1.2690: real time    1.2692
    SETDIJ:  cpu time    2.0836: real time    2.0841
    TRIAL :  cpu time   63.2731: real time   63.2878
    CORREC:  cpu time    0.0011: real time    0.0015
    CHARGE:  cpu time    0.1696: real time    0.1696
    --------------------------------------------
      LOOP:  cpu time   66.7993: real time   66.8151

 eigenvalue-minimisations  :     0
 total energy-change (2. order) :-0.5441653E+01  (-0.4030950E+01)
 number of electron     247.0000033 magnetization       2.9652318
 augmentation part       16.7118598 magnetization       1.8471795

 DIPCOR: dipole corrections for dipol
 direction  3 min pos     1,
 dipolmoment           0.000000      0.000000      0.001233 electrons x Angstroem
 Tr[quadrupol]     -6688.295787

 energy correction for charged system         0.000000 eV
 dipol+quadrupol energy correction            0.000000 eV
 added-field ion interaction          0.000000 eV  (added to PSCEN)


 Free energy of the ion-electron system (eV)
  ---------------------------------------------------
  alpha Z        PSCENC =       101.61517543
  Ewald energy   TEWEN  =     39191.68581624
  -Hartree energ DENC   =    -48318.64770805
  -exchange      EXHF   =       563.00909840
  -V(xc)+E(xc)   XCENC  =       645.48276848
  PAW double counting   =     27535.32541462   -27672.23419414
  entropy T*S    EENTRO =        -0.00641656
  eigenvalues    EBANDS =     -3222.62036088
  atomic energy  EATOM  =     10585.36259583
  ---------------------------------------------------
  free energy    TOTEN  =      -591.03233487 eV

  energy without entropy =     -591.02591831  energy(sigma->0) =     -591.02912659
  exchange ACFDT corr.  =        -0.02099216  see jH, gK, PRB 81, 115126


--------------------------------------------------------------------------------------------------------




--------------------------------------- Iteration      1(   5)  ---------------------------------------


    POTLOK:  cpu time    1.2701: real time    1.2704
    SETDIJ:  cpu time    2.0836: real time    2.0839
    TRIAL :  cpu time   63.3429: real time   63.3584
    CORREC:  cpu time    0.0011: real time    0.0014
    CHARGE:  cpu time    0.1695: real time    0.1695
    --------------------------------------------
      LOOP:  cpu time   66.8693: real time   66.8857

 eigenvalue-minimisations  :     0
 total energy-change (2. order) :-0.3322451E+01  (-0.2352723E+01)
 number of electron     247.0000033 magnetization       2.9783395
 augmentation part       16.7287318 magnetization       1.8534899

 DIPCOR: dipole corrections for dipol
 direction  3 min pos     1,
 dipolmoment           0.000000      0.000000      0.001370 electrons x Angstroem
 Tr[quadrupol]     -6688.372371

 energy correction for charged system         0.000000 eV
 dipol+quadrupol energy correction            0.000000 eV
 added-field ion interaction          0.000000 eV  (added to PSCEN)


 Free energy of the ion-electron system (eV)
  ---------------------------------------------------
  alpha Z        PSCENC =       101.61517544
  Ewald energy   TEWEN  =     39191.68581624
  -Hartree energ DENC   =    -48324.26253605
  -exchange      EXHF   =       563.32733889
  -V(xc)+E(xc)   XCENC  =       645.64057244
  PAW double counting   =     27383.34482652   -27520.79994873
  entropy T*S    EENTRO =        -0.00405860
  eigenvalues    EBANDS =     -3220.26220954
  atomic energy  EATOM  =     10585.36259583
  ---------------------------------------------------
  free energy    TOTEN  =      -594.35478552 eV

  energy without entropy =     -594.35072691  energy(sigma->0) =     -594.35275621
  exchange ACFDT corr.  =        -0.00834252  see jH, gK, PRB 81, 115126


--------------------------------------------------------------------------------------------------------




--------------------------------------- Iteration      1(   6)  ---------------------------------------


    POTLOK:  cpu time    1.2686: real time    1.2687
    SETDIJ:  cpu time    2.0832: real time    2.0836
    TRIAL :  cpu time   63.4959: real time   63.5207
    CORREC:  cpu time    0.0011: real time    0.0014
    CHARGE:  cpu time    0.1695: real time    0.1695
    --------------------------------------------
      LOOP:  cpu time   67.0202: real time   67.0458

 eigenvalue-minimisations  :     0
 total energy-change (2. order) :-0.1948479E+01  (-0.1392249E+01)
 number of electron     247.0000033 magnetization       2.9866272
 augmentation part       16.7280683 magnetization       1.8523987

 DIPCOR: dipole corrections for dipol
 direction  3 min pos     1,
 dipolmoment           0.000000      0.000000      0.001511 electrons x Angstroem
 Tr[quadrupol]     -6688.483864

 energy correction for charged system         0.000000 eV
 dipol+quadrupol energy correction            0.000000 eV
 added-field ion interaction          0.000000 eV  (added to PSCEN)


 Free energy of the ion-electron system (eV)
  ---------------------------------------------------
  alpha Z        PSCENC =       101.61517545
  Ewald energy   TEWEN  =     39191.68581624
  -Hartree energ DENC   =    -48332.73473262
  -exchange      EXHF   =       563.70157989
  -V(xc)+E(xc)   XCENC  =       645.89085809
  PAW double counting   =     27313.69058071   -27451.49595473
  entropy T*S    EENTRO =        -0.00264721
  eigenvalues    EBANDS =     -3214.01512513
  atomic energy  EATOM  =     10585.36259583
  ---------------------------------------------------
  free energy    TOTEN  =      -596.30326485 eV

  energy without entropy =     -596.30061765  energy(sigma->0) =     -596.30194125
  exchange ACFDT corr.  =        -0.00443443  see jH, gK, PRB 81, 115126


--------------------------------------------------------------------------------------------------------




--------------------------------------- Iteration      1(   7)  ---------------------------------------


    POTLOK:  cpu time    1.2668: real time    1.2672
    SETDIJ:  cpu time    2.0884: real time    2.0888
    TRIAL :  cpu time   63.7111: real time   63.7322
    CORREC:  cpu time    0.0010: real time    0.0013
    CHARGE:  cpu time    0.1694: real time    0.1694
    --------------------------------------------
      LOOP:  cpu time   67.2388: real time   67.2609

 eigenvalue-minimisations  :     0
 total energy-change (2. order) :-0.1164932E+01  (-0.8404921E+00)
 number of electron     247.0000034 magnetization       2.9916640
 augmentation part       16.7359708 magnetization       1.8487444

 DIPCOR: dipole corrections for dipol
 direction  3 min pos     1,
 dipolmoment           0.000000      0.000000      0.001588 electrons x Angstroem
 Tr[quadrupol]     -6688.555468

 energy correction for charged system         0.000000 eV
 dipol+quadrupol energy correction            0.000000 eV
 added-field ion interaction          0.000000 eV  (added to PSCEN)


 Free energy of the ion-electron system (eV)
  ---------------------------------------------------
  alpha Z        PSCENC =       101.61517546
  Ewald energy   TEWEN  =     39191.68581624
  -Hartree energ DENC   =    -48337.30078288
  -exchange      EXHF   =       563.96186268
  -V(xc)+E(xc)   XCENC  =       646.04446022
  PAW double counting   =     27292.25954147   -27429.70399053
  entropy T*S    EENTRO =        -0.00173833
  eigenvalues    EBANDS =     -3211.39022842
  atomic energy  EATOM  =     10585.36259583
  ---------------------------------------------------
  free energy    TOTEN  =      -597.46819714 eV

  energy without entropy =     -597.46645881  energy(sigma->0) =     -597.46732798
  exchange ACFDT corr.  =        -0.00264155  see jH, gK, PRB 81, 115126


--------------------------------------------------------------------------------------------------------




--------------------------------------- Iteration      1(   8)  ---------------------------------------


    POTLOK:  cpu time    1.2683: real time    1.2685
    SETDIJ:  cpu time    2.0819: real time    2.0824
    TRIAL :  cpu time   63.7051: real time   63.7217
    CORREC:  cpu time    0.0011: real time    0.0014
    CHARGE:  cpu time    0.1695: real time    0.1695
    --------------------------------------------
      LOOP:  cpu time   67.2279: real time   67.2457

 eigenvalue-minimisations  :     0
 total energy-change (2. order) :-0.7104422E+00  (-0.5159731E+00)
 number of electron     247.0000034 magnetization       2.9948221
 augmentation part       16.7476706 magnetization       1.8450361

 DIPCOR: dipole corrections for dipol
 direction  3 min pos     1,
 dipolmoment           0.000000      0.000000      0.001594 electrons x Angstroem
 Tr[quadrupol]     -6688.582519

 energy correction for charged system         0.000000 eV
 dipol+quadrupol energy correction            0.000000 eV
 added-field ion interaction          0.000000 eV  (added to PSCEN)


 Free energy of the ion-electron system (eV)
  ---------------------------------------------------
  alpha Z        PSCENC =       101.61517546
  Ewald energy   TEWEN  =     39191.68581624
  -Hartree energ DENC   =    -48339.85554115
  -exchange      EXHF   =       564.13226119
  -V(xc)+E(xc)   XCENC  =       646.14765423
  PAW double counting   =     27294.71142565   -27432.18737382
  entropy T*S    EENTRO =        -0.00113283
  eigenvalues    EBANDS =     -3209.78891464
  atomic energy  EATOM  =     10585.36259583
  ---------------------------------------------------
  free energy    TOTEN  =      -598.17863932 eV

  energy without entropy =     -598.17750649  energy(sigma->0) =     -598.17807291
  exchange ACFDT corr.  =        -0.00162238  see jH, gK, PRB 81, 115126


--------------------------------------------------------------------------------------------------------




--------------------------------------- Iteration      1(   9)  ---------------------------------------


    POTLOK:  cpu time    1.2671: real time    1.2674
    SETDIJ:  cpu time    2.0841: real time    2.0845
    TRIAL :  cpu time   63.6839: real time   63.7000
    CORREC:  cpu time    0.0010: real time    0.0013
    CHARGE:  cpu time    0.1696: real time    0.1696
    --------------------------------------------
      LOOP:  cpu time   67.2080: real time   67.2251

 eigenvalue-minimisations  :     0
 total energy-change (2. order) :-0.4390342E+00  (-0.3230239E+00)
 number of electron     247.0000034 magnetization       2.9968232
 augmentation part       16.7509807 magnetization       1.8415281

 DIPCOR: dipole corrections for dipol
 direction  3 min pos     1,
 dipolmoment           0.000000      0.000000      0.001622 electrons x Angstroem
 Tr[quadrupol]     -6688.581886

 energy correction for charged system         0.000000 eV
 dipol+quadrupol energy correction            0.000000 eV
 added-field ion interaction          0.000000 eV  (added to PSCEN)


 Free energy of the ion-electron system (eV)
  ---------------------------------------------------
  alpha Z        PSCENC =       101.61517546
  Ewald energy   TEWEN  =     39191.68581624
  -Hartree energ DENC   =    -48340.78795079
  -exchange      EXHF   =       564.22898229
  -V(xc)+E(xc)   XCENC  =       646.20360223
  PAW double counting   =     27306.36632530   -27444.08523592
  entropy T*S    EENTRO =        -0.00072714
  eigenvalues    EBANDS =     -3209.20585129
  atomic energy  EATOM  =     10585.36259583
  ---------------------------------------------------
  free energy    TOTEN  =      -598.61767348 eV

  energy without entropy =     -598.61694634  energy(sigma->0) =     -598.61730991
  exchange ACFDT corr.  =        -0.00100076  see jH, gK, PRB 81, 115126


--------------------------------------------------------------------------------------------------------




--------------------------------------- Iteration      1(  10)  ---------------------------------------


    POTLOK:  cpu time    1.2659: real time    1.2662
    SETDIJ:  cpu time    2.0815: real time    2.0818
    TRIAL :  cpu time   63.7310: real time   63.7513
    CORREC:  cpu time    0.0010: real time    0.0014
    CHARGE:  cpu time    0.1696: real time    0.1696
    --------------------------------------------
      LOOP:  cpu time   67.2512: real time   67.2726

 eigenvalue-minimisations  :     0
 total energy-change (2. order) :-0.2770945E+00  (-0.2054978E+00)
 number of electron     247.0000034 magnetization       2.9980630
 augmentation part       16.7519559 magnetization       1.8383163

 DIPCOR: dipole corrections for dipol
 direction  3 min pos     1,
 dipolmoment           0.000000      0.000000      0.001680 electrons x Angstroem
 Tr[quadrupol]     -6688.571431

 energy correction for charged system         0.000000 eV
 dipol+quadrupol energy correction            0.000000 eV
 added-field ion interaction          0.000000 eV  (added to PSCEN)


 Free energy of the ion-electron system (eV)
  ---------------------------------------------------
  alpha Z        PSCENC =       101.61517547
  Ewald energy   TEWEN  =     39191.68581624
  -Hartree energ DENC   =    -48340.13964635
  -exchange      EXHF   =       564.27164143
  -V(xc)+E(xc)   XCENC  =       646.21037408
  PAW double counting   =     27319.76192603   -27457.46269243
  entropy T*S    EENTRO =        -0.00046245
  eigenvalues    EBANDS =     -3210.19923110
  atomic energy  EATOM  =     10585.36259583
  ---------------------------------------------------
  free energy    TOTEN  =      -598.89476793 eV

  energy without entropy =     -598.89430549  energy(sigma->0) =     -598.89453671
  exchange ACFDT corr.  =        -0.00061227  see jH, gK, PRB 81, 115126


--------------------------------------------------------------------------------------------------------




--------------------------------------- Iteration      1(  11)  ---------------------------------------


    POTLOK:  cpu time    1.2635: real time    1.2638
    SETDIJ:  cpu time    2.0805: real time    2.0809
    TRIAL :  cpu time   63.5764: real time   63.6133
    CORREC:  cpu time    0.0010: real time    0.0013
    CHARGE:  cpu time    0.1696: real time    0.1696
    --------------------------------------------
      LOOP:  cpu time   67.0934: real time   67.1314

 eigenvalue-minimisations  :     0
 total energy-change (2. order) :-0.1778040E+00  (-0.1322744E+00)
 number of electron     247.0000034 magnetization       2.9988077
 augmentation part       16.7556432 magnetization       1.8349030

 DIPCOR: dipole corrections for dipol
 direction  3 min pos     1,
 dipolmoment           0.000000      0.000000      0.001743 electrons x Angstroem
 Tr[quadrupol]     -6688.566262

 energy correction for charged system         0.000000 eV
 dipol+quadrupol energy correction            0.000000 eV
 added-field ion interaction          0.000000 eV  (added to PSCEN)


 Free energy of the ion-electron system (eV)
  ---------------------------------------------------
  alpha Z        PSCENC =       101.61517547
  Ewald energy   TEWEN  =     39191.68581624
  -Hartree energ DENC   =    -48339.65375235
  -exchange      EXHF   =       564.30880260
  -V(xc)+E(xc)   XCENC  =       646.21570963
  PAW double counting   =     27332.25011355   -27469.91812709
  entropy T*S    EENTRO =        -0.00029579
  eigenvalues    EBANDS =     -3210.93844332
  atomic energy  EATOM  =     10585.36259583
  ---------------------------------------------------
  free energy    TOTEN  =      -599.07257189 eV

  energy without entropy =     -599.07227610  energy(sigma->0) =     -599.07242400
  exchange ACFDT corr.  =        -0.00037304  see jH, gK, PRB 81, 115126


--------------------------------------------------------------------------------------------------------




--------------------------------------- Iteration      1(  12)  ---------------------------------------


    POTLOK:  cpu time    1.2602: real time    1.2605
    SETDIJ:  cpu time    2.0886: real time    2.0889
    TRIAL :  cpu time   63.5542: real time   63.5695
    CORREC:  cpu time    0.0010: real time    0.0013
    CHARGE:  cpu time    0.1693: real time    0.1693
    --------------------------------------------
      LOOP:  cpu time   67.0756: real time   67.0918

 eigenvalue-minimisations  :     0
 total energy-change (2. order) :-0.1159692E+00  (-0.8873141E-01)
 number of electron     247.0000034 magnetization       2.9992510
 augmentation part       16.7574276 magnetization       1.8306102

 DIPCOR: dipole corrections for dipol
 direction  3 min pos     1,
 dipolmoment           0.000000      0.000000      0.001786 electrons x Angstroem
 Tr[quadrupol]     -6688.569288

 energy correction for charged system         0.000000 eV
 dipol+quadrupol energy correction            0.000000 eV
 added-field ion interaction          0.000000 eV  (added to PSCEN)


 Free energy of the ion-electron system (eV)
  ---------------------------------------------------
  alpha Z        PSCENC =       101.61517548
  Ewald energy   TEWEN  =     39191.68581624
  -Hartree energ DENC   =    -48339.98818522
  -exchange      EXHF   =       564.35868416
  -V(xc)+E(xc)   XCENC  =       646.23753665
  PAW double counting   =     27342.89557325   -27480.66568760
  entropy T*S    EENTRO =        -0.00019231
  eigenvalues    EBANDS =     -3210.68975409
  atomic energy  EATOM  =     10585.36259583
  ---------------------------------------------------
  free energy    TOTEN  =      -599.18854108 eV

  energy without entropy =     -599.18834877  energy(sigma->0) =     -599.18844492
  exchange ACFDT corr.  =        -0.00022973  see jH, gK, PRB 81, 115126


--------------------------------------------------------------------------------------------------------




--------------------------------------- Iteration      1(  13)  ---------------------------------------


    POTLOK:  cpu time    1.2564: real time    1.2567
    SETDIJ:  cpu time    2.0852: real time    2.0856
    TRIAL :  cpu time   63.6275: real time   63.6459
    CORREC:  cpu time    0.0010: real time    0.0013
    CHARGE:  cpu time    0.1698: real time    0.1698
    --------------------------------------------
      LOOP:  cpu time   67.1423: real time   67.1617

 eigenvalue-minimisations  :     0
 total energy-change (2. order) :-0.7909984E-01  (-0.6276422E-01)
 number of electron     247.0000034 magnetization       2.9995175
 augmentation part       16.7576677 magnetization       1.8257218

 DIPCOR: dipole corrections for dipol
 direction  3 min pos     1,
 dipolmoment           0.000000      0.000000      0.001814 electrons x Angstroem
 Tr[quadrupol]     -6688.574656

 energy correction for charged system         0.000000 eV
 dipol+quadrupol energy correction            0.000000 eV
 added-field ion interaction          0.000000 eV  (added to PSCEN)


 Free energy of the ion-electron system (eV)
  ---------------------------------------------------
  alpha Z        PSCENC =       101.61517548
  Ewald energy   TEWEN  =     39191.68581624
  -Hartree energ DENC   =    -48340.31685612
  -exchange      EXHF   =       564.40767759
  -V(xc)+E(xc)   XCENC  =       646.25541766
  PAW double counting   =     27351.06102921   -27488.86404424
  entropy T*S    EENTRO =        -0.00012773
  eigenvalues    EBANDS =     -3210.47426026
  atomic energy  EATOM  =     10585.36259583
  ---------------------------------------------------
  free energy    TOTEN  =      -599.26764092 eV

  energy without entropy =     -599.26751319  energy(sigma->0) =     -599.26757705
  exchange ACFDT corr.  =        -0.00014448  see jH, gK, PRB 81, 115126


--------------------------------------------------------------------------------------------------------




--------------------------------------- Iteration      1(  14)  ---------------------------------------


    POTLOK:  cpu time    1.2564: real time    1.2568
    SETDIJ:  cpu time    2.0813: real time    2.0816
    TRIAL :  cpu time   63.6848: real time   63.6990
    CORREC:  cpu time    0.0009: real time    0.0013
    CHARGE:  cpu time    0.1698: real time    0.1699
    --------------------------------------------
      LOOP:  cpu time   67.1953: real time   67.2107

 eigenvalue-minimisations  :     0
 total energy-change (2. order) :-0.5704650E-01  (-0.4729324E-01)
 number of electron     247.0000033 magnetization       2.9996796
 augmentation part       16.7582562 magnetization       1.8207645

 DIPCOR: dipole corrections for dipol
 direction  3 min pos     1,
 dipolmoment           0.000000      0.000000      0.001844 electrons x Angstroem
 Tr[quadrupol]     -6688.579408

 energy correction for charged system         0.000000 eV
 dipol+quadrupol energy correction            0.000000 eV
 added-field ion interaction          0.000000 eV  (added to PSCEN)


 Free energy of the ion-electron system (eV)
  ---------------------------------------------------
  alpha Z        PSCENC =       101.61517548
  Ewald energy   TEWEN  =     39191.68581624
  -Hartree energ DENC   =    -48340.60605464
  -exchange      EXHF   =       564.45824154
  -V(xc)+E(xc)   XCENC  =       646.27243684
  PAW double counting   =     27356.69976119   -27494.51177821
  entropy T*S    EENTRO =        -0.00008715
  eigenvalues    EBANDS =     -3210.30075397
  atomic energy  EATOM  =     10585.36259583
  ---------------------------------------------------
  free energy    TOTEN  =      -599.32468742 eV

  energy without entropy =     -599.32460027  energy(sigma->0) =     -599.32464385
  exchange ACFDT corr.  =        -0.00009321  see jH, gK, PRB 81, 115126


--------------------------------------------------------------------------------------------------------




--------------------------------------- Iteration      1(  15)  ---------------------------------------


    POTLOK:  cpu time    1.2542: real time    1.2551
    SETDIJ:  cpu time    2.0790: real time    2.0837
    TRIAL :  cpu time   63.7045: real time   63.7275
    CORREC:  cpu time    0.0010: real time    0.0013
    CHARGE:  cpu time    0.1695: real time    0.1697
    --------------------------------------------
      LOOP:  cpu time   67.2107: real time   67.2398

 eigenvalue-minimisations  :     0
 total energy-change (2. order) :-0.4386433E-01  (-0.3818556E-01)
 number of electron     247.0000033 magnetization       2.9997798
 augmentation part       16.7580576 magnetization       1.8156551

 DIPCOR: dipole corrections for dipol
 direction  3 min pos     1,
 dipolmoment           0.000000      0.000000      0.001880 electrons x Angstroem
 Tr[quadrupol]     -6688.583047

 energy correction for charged system         0.000000 eV
 dipol+quadrupol energy correction            0.000000 eV
 added-field ion interaction          0.000000 eV  (added to PSCEN)


 Free energy of the ion-electron system (eV)
  ---------------------------------------------------
  alpha Z        PSCENC =       101.61517549
  Ewald energy   TEWEN  =     39191.68581624
  -Hartree energ DENC   =    -48340.97814563
  -exchange      EXHF   =       564.51305278
  -V(xc)+E(xc)   XCENC  =       646.29319006
  PAW double counting   =     27360.24211071   -27498.10322603
  entropy T*S    EENTRO =        -0.00006135
  eigenvalues    EBANDS =     -3209.99903405
  atomic energy  EATOM  =     10585.36259583
  ---------------------------------------------------
  free energy    TOTEN  =      -599.36855175 eV

  energy without entropy =     -599.36849040  energy(sigma->0) =     -599.36852108
  exchange ACFDT corr.  =        -0.00006201  see jH, gK, PRB 81, 115126


--------------------------------------------------------------------------------------------------------




--------------------------------------- Iteration      1(  16)  ---------------------------------------


    POTLOK:  cpu time    1.2505: real time    1.2507
    SETDIJ:  cpu time    2.0804: real time    2.0807
    TRIAL :  cpu time   63.4441: real time   63.4592
    CORREC:  cpu time    0.0009: real time    0.0013
    CHARGE:  cpu time    0.1694: real time    0.1694
    --------------------------------------------
      LOOP:  cpu time   66.9474: real time   66.9635

 eigenvalue-minimisations  :     0
 total energy-change (2. order) :-0.3603609E-01  (-0.3264381E-01)
 number of electron     247.0000033 magnetization       2.9998433
 augmentation part       16.7581698 magnetization       1.8106726

 DIPCOR: dipole corrections for dipol
 direction  3 min pos     1,
 dipolmoment           0.000000      0.000000      0.001913 electrons x Angstroem
 Tr[quadrupol]     -6688.584976

 energy correction for charged system         0.000000 eV
 dipol+quadrupol energy correction            0.000000 eV
 added-field ion interaction          0.000000 eV  (added to PSCEN)


 Free energy of the ion-electron system (eV)
  ---------------------------------------------------
  alpha Z        PSCENC =       101.61517549
  Ewald energy   TEWEN  =     39191.68581624
  -Hartree energ DENC   =    -48341.18663432
  -exchange      EXHF   =       564.56622357
  -V(xc)+E(xc)   XCENC  =       646.31042466
  PAW double counting   =     27362.23455592   -27500.11177772
  entropy T*S    EENTRO =        -0.00004459
  eigenvalues    EBANDS =     -3209.88090616
  atomic energy  EATOM  =     10585.36259583
  ---------------------------------------------------
  free energy    TOTEN  =      -599.40458784 eV

  energy without entropy =     -599.40454325  energy(sigma->0) =     -599.40456554
  exchange ACFDT corr.  =        -0.00004271  see jH, gK, PRB 81, 115126


--------------------------------------------------------------------------------------------------------




--------------------------------------- Iteration      1(  17)  ---------------------------------------


    POTLOK:  cpu time    1.2492: real time    1.2495
    SETDIJ:  cpu time    2.0867: real time    2.0870
    TRIAL :  cpu time   63.3927: real time   63.4075
    CORREC:  cpu time    0.0009: real time    0.0013
    CHARGE:  cpu time    0.1693: real time    0.1693
    --------------------------------------------
      LOOP:  cpu time   66.9011: real time   66.9169

 eigenvalue-minimisations  :     0
 total energy-change (2. order) :-0.3121114E-01  (-0.2916217E-01)
 number of electron     247.0000033 magnetization       2.9998845
 augmentation part       16.7581838 magnetization       1.8057127

 DIPCOR: dipole corrections for dipol
 direction  3 min pos     1,
 dipolmoment           0.000000      0.000000      0.001939 electrons x Angstroem
 Tr[quadrupol]     -6688.586412

 energy correction for charged system         0.000000 eV
 dipol+quadrupol energy correction            0.000000 eV
 added-field ion interaction          0.000000 eV  (added to PSCEN)


 Free energy of the ion-electron system (eV)
  ---------------------------------------------------
  alpha Z        PSCENC =       101.61517549
  Ewald energy   TEWEN  =     39191.68581624
  -Hartree energ DENC   =    -48341.41645189
  -exchange      EXHF   =       564.62160315
  -V(xc)+E(xc)   XCENC  =       646.32919010
  PAW double counting   =     27363.30993770   -27501.22089821
  entropy T*S    EENTRO =        -0.00003345
  eigenvalues    EBANDS =     -3209.72272281
  atomic energy  EATOM  =     10585.36259583
  ---------------------------------------------------
  free energy    TOTEN  =      -599.43579897 eV

  energy without entropy =     -599.43576552  energy(sigma->0) =     -599.43578225
  exchange ACFDT corr.  =        -0.00003047  see jH, gK, PRB 81, 115126


--------------------------------------------------------------------------------------------------------




--------------------------------------- Iteration      1(  18)  ---------------------------------------


    POTLOK:  cpu time    1.2469: real time    1.2470
    SETDIJ:  cpu time    2.0828: real time    2.0834
    TRIAL :  cpu time   63.2164: real time   63.2310
    CORREC:  cpu time    0.0009: real time    0.0012
    CHARGE:  cpu time    0.1693: real time    0.1693
    --------------------------------------------
      LOOP:  cpu time   66.7188: real time   66.7344

 eigenvalue-minimisations  :     0
 total energy-change (2. order) :-0.2813652E-01  (-0.2687049E-01)
 number of electron     247.0000033 magnetization       2.9999121
 augmentation part       16.7577592 magnetization       1.8006845

 DIPCOR: dipole corrections for dipol
 direction  3 min pos     1,
 dipolmoment           0.000000      0.000000      0.001959 electrons x Angstroem
 Tr[quadrupol]     -6688.587648

 energy correction for charged system         0.000000 eV
 dipol+quadrupol energy correction            0.000000 eV
 added-field ion interaction          0.000000 eV  (added to PSCEN)


 Free energy of the ion-electron system (eV)
  ---------------------------------------------------
  alpha Z        PSCENC =       101.61517550
  Ewald energy   TEWEN  =     39191.68581624
  -Hartree energ DENC   =    -48341.63921383
  -exchange      EXHF   =       564.67841036
  -V(xc)+E(xc)   XCENC  =       646.34841108
  PAW double counting   =     27363.91470248   -27501.86272769
  entropy T*S    EENTRO =        -0.00002588
  eigenvalues    EBANDS =     -3209.56707200
  atomic energy  EATOM  =     10585.36259583
  ---------------------------------------------------
  free energy    TOTEN  =      -599.46393549 eV

  energy without entropy =     -599.46390961  energy(sigma->0) =     -599.46392255
  exchange ACFDT corr.  =        -0.00002251  see jH, gK, PRB 81, 115126


[...]
  augment   103.44547    99.61899   111.59877     2.03966     0.08499     0.09490
  Kinetic  3633.28300  3615.87557  4096.42200    -4.92806     0.15269     0.14471
  Fock     -404.23828  -401.03644  -388.15589    -1.64293    -0.05202    -0.05611
  -------------------------------------------------------------------------------------
  Total     -45.64108   -34.36895    -0.38650    -0.88510     0.00770     0.02885
  in kB     -23.01754   -17.33282    -0.19492    -0.44637     0.00388     0.01455
  external pressure =      -13.52 kB  Pullay stress =        0.00 kB


 VOLUME and BASIS-vectors are now :
 -----------------------------------------------------------------------------
  energy-cutoff  :      500.00
  volume of cell :     3176.93
      direct lattice vectors                 reciprocal lattice vectors
    13.036500000  0.000000000  0.000000000     0.076707705 -0.000017806 -0.000016065
     0.002856554 12.305899668  0.000000000     0.000000000  0.081261836 -0.000002691
     0.004147552  0.000655733 19.803099555     0.000000000  0.000000000  0.050497146

  length of vectors
    13.036500000 12.305900000 19.803100000     0.076707709  0.081261836  0.050497146


 FORCES acting on ions:
    Electron-Ion                     Ewald-Force                    Non-Local-Force
 -----------------------------------------------------------------------------------------------
   0.308E+01 0.531E+01 0.798E-01   -.221E+01 -.569E+01 -.770E-01   -.530E+00 0.279E+00 -.212E-02
   0.428E+01 0.109E+02 -.477E+00   -.468E+01 -.115E+02 0.478E+00   0.101E+00 0.365E+00 -.215E-02
   -.932E+01 0.606E+01 -.189E+00   0.945E+01 -.628E+01 0.184E+00   -.315E+00 0.222E+00 0.559E-02
   0.729E+01 0.243E+02 0.549E+00   -.704E+01 -.246E+02 -.553E+00   -.232E+00 0.247E+00 0.684E-02
   0.233E+02 0.608E+02 0.313E+00   -.244E+02 -.645E+02 -.297E+00   0.975E+00 0.375E+01 -.158E-01
   0.172E+02 0.136E+02 -.104E+01   -.177E+02 -.140E+02 0.104E+01   0.378E+00 0.129E+00 -.587E-02
   0.689E+01 0.186E+02 -.303E+00   -.691E+01 -.189E+02 0.298E+00   0.270E-01 0.476E+00 0.413E-02
   0.503E+02 -.237E+02 0.549E-01   -.525E+02 0.253E+02 -.515E-01   0.163E+01 -.328E+01 -.690E-02
   0.887E+01 -.529E+01 -.170E+01   -.925E+01 0.600E+01 0.170E+01   0.365E-01 -.483E+00 -.566E-02
   0.265E+02 -.541E+01 -.110E+01   -.267E+02 0.581E+01 0.111E+01   0.774E+00 -.361E+00 -.835E-02
   0.630E+02 -.250E+02 0.882E+00   -.628E+02 0.266E+02 -.904E+00   0.228E+01 -.350E+00 0.667E-02
   0.169E+02 -.258E+02 -.343E+00   -.166E+02 0.275E+02 0.350E+00   -.610E+00 -.101E+01 0.668E-02
   0.291E+01 -.164E+02 -.123E+01   -.273E+01 0.167E+02 0.123E+01   -.325E+00 -.246E+00 0.657E-03
   0.127E+02 -.104E+02 -.143E+01   -.124E+02 0.107E+02 0.143E+01   -.193E+00 -.196E+00 -.824E-02
   -.968E+01 -.143E+02 -.215E+00   0.102E+02 0.139E+02 0.226E+00   -.649E+00 0.452E+00 -.127E-01
   -.463E+00 -.279E+01 -.623E+00   0.608E+00 0.261E+01 0.625E+00   -.183E+00 0.264E+00 -.267E-02
   -.633E+01 -.706E+01 -.665E+00   0.711E+01 0.694E+01 0.668E+00   -.643E+00 -.341E-01 -.326E-02
   -.242E+01 0.767E+01 0.587E-01   0.263E+01 -.824E+01 -.665E-01   -.378E+00 0.655E+00 0.705E-02
   0.287E+01 0.125E+02 -.725E+00   -.292E+01 -.128E+02 0.717E+00   0.223E+00 0.220E+00 0.498E-02
   0.317E+02 0.467E+02 0.436E+00   -.333E+02 -.495E+02 -.419E+00   0.206E+01 0.268E+01 -.166E-01
   0.110E+02 0.178E+02 -.341E+00   -.118E+02 -.185E+02 0.339E+00   0.510E+00 0.619E+00 -.300E-02
   -.177E+02 0.154E+02 -.755E+00   0.181E+02 -.155E+02 0.763E+00   -.235E+00 0.471E-01 -.759E-02
   -.520E+02 0.147E+02 0.237E+00   0.552E+02 -.141E+02 -.215E+00   -.367E+01 -.717E+00 -.218E-01
   -.317E+02 0.460E+01 0.628E+00   0.314E+02 -.230E+01 -.633E+00   0.889E+00 -.159E+01 0.394E-02
   -.904E+01 0.165E+02 0.725E+00   0.103E+02 -.215E+02 -.729E+00   -.471E+00 0.460E+01 0.418E-02
   -.179E+02 -.367E+02 -.267E+00   0.195E+02 0.399E+02 0.293E+00   -.151E+01 -.327E+01 -.268E-01
   0.249E+00 -.982E+01 -.505E+00   -.197E+01 0.103E+02 0.502E+00   0.143E+01 -.576E+00 -.174E-02
   0.138E+02 0.845E+01 -.190E+00   -.136E+02 -.954E+01 0.181E+00   0.376E-01 0.100E+01 0.625E-02
   -.353E+01 -.803E+00 -.977E+00   0.348E+01 0.665E+00 0.979E+00   -.660E-02 0.325E+00 -.569E-02
   0.121E+01 0.228E+01 -.823E+00   -.116E+01 -.238E+01 0.821E+00   -.865E-01 -.132E-01 0.140E-02
   -.298E+01 0.567E+01 -.844E+00   0.294E+01 -.569E+01 0.842E+00   -.117E+00 -.157E+00 -.151E-04
   -.866E+01 0.223E+01 -.103E+01   0.869E+01 -.213E+01 0.103E+01   0.837E-02 -.599E-01 -.464E-02
   -.599E+01 0.329E+01 -.784E+00   0.614E+01 -.332E+01 0.784E+00   0.451E-01 0.425E-01 -.323E-03
   0.137E+01 0.817E+01 -.957E+00   -.177E+01 -.839E+01 0.951E+00   0.187E+00 0.176E+00 0.293E-02
   -.871E+01 0.389E+01 -.913E-01   0.777E+01 -.424E+01 0.877E-01   0.735E+00 0.128E-01 0.440E-02
   -.719E+01 0.170E+01 -.759E+00   0.718E+01 -.132E+01 0.759E+00   0.277E+00 -.874E-01 -.316E-02
   0.328E+01 0.149E+01 -.124E+01   -.364E+01 -.154E+01 0.124E+01   0.464E+00 0.940E-01 -.121E-02
   0.315E+01 0.193E+01 -.132E+01   -.360E+01 -.215E+01 0.132E+01   0.225E+00 0.358E-01 -.441E-02
   -.602E+01 0.220E+01 -.578E-01   0.522E+01 -.245E+01 0.573E-01   0.528E+00 0.421E+00 0.275E-02
   -.519E+01 -.207E+01 -.498E+00   0.503E+01 0.186E+01 0.498E+00   0.385E+00 0.257E+00 0.461E-03
   0.824E+01 -.165E+01 -.162E+01   -.794E+01 0.171E+01 0.162E+01   0.197E+00 -.654E-01 -.132E-02
   -.798E+00 -.624E+01 -.128E+01   0.630E+00 0.653E+01 0.128E+01   -.126E+00 -.762E-01 -.426E-03
   -.113E+02 -.109E+02 -.521E+00   0.116E+02 0.112E+02 0.521E+00   -.495E+00 -.260E+00 0.182E-02
   -.713E+01 0.103E+01 -.563E+00   0.754E+01 -.144E+01 0.563E+00   -.394E-01 0.312E+00 0.671E-03
   -.308E+00 -.301E+01 -.125E+01   0.553E+00 0.300E+01 0.125E+01   -.678E-01 -.449E-01 -.167E-02
   -.158E+01 -.676E+01 -.875E+00   0.141E+01 0.686E+01 0.872E+00   -.937E-01 -.158E+00 0.327E-02
   0.734E+00 -.135E+01 -.932E+00   -.858E+00 0.154E+01 0.930E+00   0.992E-01 -.101E+00 0.277E-02
   -.476E+01 -.213E+01 -.934E+00   0.508E+01 0.243E+01 0.938E+00   -.691E-01 -.377E+00 -.599E-02
   -.806E+01 0.702E+00 -.749E+00   0.826E+01 -.535E+00 0.749E+00   -.198E+00 0.221E-01 0.285E-03
   -.253E+02 -.436E+02 0.756E+00   0.311E+02 0.434E+02 -.831E+00   -.653E+01 0.111E+00 0.719E-01
   -.204E+02 -.356E+02 0.956E+00   0.106E+02 0.350E+02 -.917E+00   0.969E+01 0.256E+00 -.150E-01
   0.358E+02 0.224E+01 -.208E+00   -.396E+02 -.752E+01 0.206E+00   0.384E+01 0.572E+01 0.260E-02
   0.134E+02 0.516E+02 0.148E+01   0.928E+01 -.505E+02 -.155E+01   -.221E+02 -.691E+00 0.902E-01
   0.196E+02 0.397E+02 0.202E+01   -.302E+02 -.207E+02 -.218E+01   0.101E+02 -.182E+02 0.158E+00
   -.671E+02 -.610E+02 0.734E+01   0.876E+02 0.605E+02 -.773E+01   -.214E+02 -.222E+00 0.367E+00
   0.318E+02 0.162E+02 0.122E+01   -.513E+02 -.174E+02 -.130E+01   0.187E+02 0.113E+01 0.710E-01
   -.516E+02 0.665E+01 0.689E+01   0.582E+02 -.210E+01 -.684E+01   -.605E+01 -.459E+01 -.502E-01
   -.981E+01 -.628E+02 0.518E+01   0.687E+01 0.643E+02 -.513E+01   0.337E+01 -.144E+01 -.548E-01
 -----------------------------------------------------------------------------------------------
   0.816E+01 0.147E+02 -.601E+00   0.341E-12 0.227E-12 0.711E-14   -.712E+01 -.138E+02 0.538E+00
 
 
 POSITION                                       TOTAL-FORCE (eV/Angst)
 -----------------------------------------------------------------------------------
      2.95654      0.01940      9.89700         0.312791     -0.086151      0.000726
      0.74479      1.22673      9.90096        -0.288430     -0.212061     -0.001023
      1.49123      0.00636      9.89977        -0.215944      0.013426      0.001170
      3.67971      1.29343      9.89422         0.001992     -0.058607      0.003474
      2.89676      2.52070      9.89442        -0.098928      0.326086     -0.000998
      0.66740      3.67265      9.90214        -0.125372     -0.295403     -0.002147
      1.44070      2.46926      9.89917         0.001577      0.287960     -0.000701
      2.74139      4.89155      9.89383        -0.553349     -1.844096     -0.003913
      0.63369      6.14799      9.90432        -0.346217      0.203483     -0.005223
      1.33828      4.91272      9.90096         0.619715      0.014526     -0.004393
      3.44695      6.12067      9.88888         2.668896      1.207192     -0.014675
      2.75097      7.37168      9.89581        -0.370496      0.703000      0.013999
      0.68563      8.62750      9.90373        -0.164482      0.002273     -0.000060
      1.34589      7.37882      9.90254         0.132812      0.150650     -0.004379
      2.90953      9.81158      9.89759        -0.130957      0.061378     -0.001786
      0.75659     11.08302      9.90195        -0.040383      0.092035     -0.001610
      1.45962      9.83914      9.90135         0.097578     -0.145130     -0.000598
      3.65630     11.06530      9.89680        -0.191843      0.117953     -0.000294
      7.27369     12.29331      9.89977         0.194608     -0.038655     -0.002578
      5.14384      1.28445      9.89343         0.522718      0.086051     -0.000878
      5.83030      0.00057      9.89719        -0.249649     -0.035516     -0.004470
      8.00338      1.21258      9.89957         0.144194     -0.047564      0.000489
      7.28000      2.42447      9.89422        -0.705551     -0.206661     -0.000551
      7.98505      3.69923      9.89363         0.620124      0.628509     -0.000624
      7.94743      6.17346      9.89284         0.731593     -0.192043      0.000749
      8.03599      8.59514      9.89719         0.008428     -0.269369     -0.001995
      7.29241      9.84862      9.89838        -0.230539     -0.094401     -0.004449
      5.11768     11.04672      9.89680         0.261148     -0.035650     -0.002703
      8.01284     11.07391      9.90135        -0.061299      0.199871     -0.004063
     11.61876     12.30537      9.90373        -0.028966     -0.122339     -0.000408
      9.44183      1.21960      9.90214        -0.149708     -0.185014     -0.001013
     10.17536     12.30574      9.90373         0.030954      0.031902     -0.002339
     12.33384      1.22698      9.90313         0.187892      0.011295      0.000120
     11.58231      2.44477      9.90353        -0.197492     -0.031784     -0.002207
      9.42115      3.67979      9.89858        -0.166752     -0.335628      0.001108
     10.14908      2.44908      9.90195         0.277590      0.286665     -0.003158
     12.27379      3.67942      9.90412         0.131658      0.048166     -0.002104
     11.55056      4.91210      9.90432        -0.214212     -0.177943     -0.005183
      9.40099      6.15352      9.89818        -0.237269      0.198495      0.002519
     10.11889      4.91678      9.90056         0.244778      0.055214      0.000382
     12.25977      6.14614      9.90551         0.522237     -0.003174     -0.002867
     11.56625      7.38682      9.90472        -0.303451      0.204485     -0.002540
      9.45241      8.61913      9.90076        -0.208663      0.033533      0.001884
     10.14149      7.37870      9.90135         0.370522     -0.073677      0.000247
     12.29267      8.62307      9.90492         0.173672     -0.045337     -0.002245
     11.59942      9.85994      9.90412        -0.272423     -0.069573      0.000654
      9.44959     11.08228      9.90313        -0.012583      0.082143      0.000973
     10.16840      9.85809      9.90333         0.239227     -0.094606     -0.002057
     12.34591     11.08191      9.90353        -0.010507      0.194067      0.000682
      3.55911      8.53459      9.89284        -0.996036     -0.058803      0.000890
      7.25542      4.91592      9.89046         0.408949     -0.268744      0.023342
      5.86973      9.82314      9.89581         0.311643      0.726335      0.001222
      3.49490      3.75178      9.89046        -1.325027      0.320864      0.022856
      5.90478      2.44674      9.88947         0.369787     -0.885451      0.006351
      4.78008      6.17949      9.87680        -2.785887     -0.729280      0.001318
      7.31727      7.42891      9.89185         0.695851      0.046408      0.001690
      5.38090      4.36105      9.88393         0.410051     -0.049193     -0.002416
      5.40207      7.94563      9.88492        -0.010571      0.357886      0.005806
 -----------------------------------------------------------------------------------
    total drift:                               -0.004196      0.002529     -0.004616


--------------------------------------------------------------------------------------------------------



  FREE ENERGIE OF THE ION-ELECTRON SYSTEM (eV)
  ---------------------------------------------------
  free  energy   TOTEN  =      -599.74767974 eV

  energy  without entropy=     -599.74767709  energy(sigma->0) =     -599.74767842
 


--------------------------------------------------------------------------------------------------------


    POTLOK:  cpu time    3.3177: real time    3.3182


--------------------------------------------------------------------------------------------------------


 stress matrix after NEB project (eV)
    -45.64108     -0.88366      0.02885
     -0.88510    -34.36895      0.00739
      0.02960      0.00770     -0.38650
  FORCES: max atom, RMS     2.929255    0.742978
  FORCE total and by dimension    5.658355    2.785887
  Stress total and by dimension   57.149357   45.641085
 writing wavefunctions
     LOOP+:  cpu time 5028.5131: real time 5030.3455
    4ORBIT:  cpu time    0.0000: real time    0.0000
 


 total charge     
 
# of ion       s       p       d       tot
------------------------------------------
    1        0.853   1.705   0.000   2.558
    2        0.863   1.758   0.000   2.621
    3        0.860   1.736   0.000   2.597
    4        0.842   1.733   0.000   2.575
    5        0.854   1.703   0.000   2.557
    6        0.870   1.774   0.000   2.644
    7        0.864   1.755   0.000   2.619
    8        0.876   1.783   0.000   2.659
    9        0.870   1.793   0.000   2.663
   10        0.875   1.810   0.000   2.686
   11        0.890   1.761   0.000   2.651
   12        0.883   1.792   0.000   2.675
   13        0.867   1.773   0.000   2.640
   14        0.874   1.805   0.000   2.679
   15        0.857   1.723   0.000   2.579
   16        0.862   1.752   0.000   2.614
   17        0.861   1.749   0.000   2.610
   18        0.854   1.723   0.000   2.577
   19        0.867   1.754   0.000   2.621
   20        0.848   1.681   0.000   2.529
   21        0.859   1.733   0.000   2.592
   22        0.867   1.787   0.000   2.653
   23        0.867   1.727   0.000   2.594
   24        0.866   1.749   0.000   2.615
   25        0.850   1.687   0.000   2.537
   26        0.866   1.732   0.000   2.598
   27        0.870   1.753   0.000   2.623
   28        0.856   1.716   0.000   2.572
   29        0.866   1.774   0.000   2.640
   30        0.866   1.764   0.000   2.631
   31        0.866   1.775   0.000   2.641
   32        0.866   1.767   0.000   2.633
   33        0.862   1.765   0.000   2.627
   34        0.868   1.770   0.000   2.638
   35        0.868   1.766   0.000   2.634
   36        0.866   1.774   0.000   2.640
   37        0.867   1.780   0.000   2.647
   38        0.866   1.769   0.000   2.636
   39        0.863   1.752   0.000   2.615
   40        0.867   1.771   0.000   2.638
   41        0.873   1.783   0.000   2.656
   42        0.865   1.780   0.000   2.646
   43        0.869   1.789   0.000   2.658
   44        0.870   1.769   0.000   2.639
   45        0.868   1.768   0.000   2.636
   46        0.867   1.772   0.000   2.639
   47        0.867   1.774   0.000   2.641
   48        0.866   1.773   0.000   2.639
   49        0.863   1.760   0.000   2.623
   50        0.873   1.655   0.000   2.529
   51        0.868   1.656   0.000   2.524
   52        0.867   1.670   0.000   2.537
   53        1.241   2.661   0.000   3.902
   54        1.231   2.654   0.000   3.886
   55        1.264   2.567   0.000   3.831
   56        1.232   2.658   0.000   3.890
   57        0.466   0.501   9.114  10.081
   58        0.512   0.698   6.063   7.273
--------------------------------------------------
tot         50.943 102.863  15.177 168.984
 


 magnetization (x)
 
# of ion       s       p       d       tot
------------------------------------------
    1       -0.000  -0.000   0.000  -0.000
    2        0.001   0.011   0.000   0.011
    3       -0.001  -0.010   0.000  -0.011
    4        0.002   0.030   0.000   0.032
    5        0.000   0.011   0.000   0.011
    6        0.000   0.003   0.000   0.003
    7       -0.001   0.001   0.000   0.000
    8        0.000   0.002   0.000   0.002
    9        0.000   0.007   0.000   0.007
   10        0.000   0.007   0.000   0.008
   11        0.002  -0.002   0.000  -0.000
   12       -0.000   0.013   0.000   0.013
   13        0.000   0.006   0.000   0.006
   14       -0.001  -0.008   0.000  -0.009
   15        0.001   0.016   0.000   0.017
   16        0.001   0.018   0.000   0.019
   17       -0.001  -0.001   0.000  -0.002
   18        0.001   0.016   0.000   0.017
   19        0.002   0.020   0.000   0.022
   20       -0.001   0.008   0.000   0.007
   21       -0.003  -0.020   0.000  -0.024
   22       -0.002  -0.016   0.000  -0.018
   23        0.005   0.065   0.000   0.070
   24       -0.002  -0.023   0.000  -0.025
   25       -0.002  -0.018   0.000  -0.020
   26       -0.001  -0.008   0.000  -0.008
   27        0.004   0.044   0.000   0.048
   28        0.001   0.025   0.000   0.026
   29       -0.002  -0.021   0.000  -0.023
   30        0.001   0.008   0.000   0.009
   31        0.004   0.056   0.000   0.060
   32       -0.002  -0.022   0.000  -0.025
   33       -0.000   0.001   0.000   0.001
   34        0.001   0.020   0.000   0.021
   35        0.001   0.015   0.000   0.016
   36       -0.002  -0.010   0.000  -0.011
   37       -0.001  -0.009   0.000  -0.010
   38        0.001   0.017   0.000   0.018
   39       -0.001   0.005   0.000   0.004
   40       -0.001  -0.011   0.000  -0.012
   41       -0.001  -0.007   0.000  -0.008
   42        0.001   0.018   0.000   0.019
   43        0.002   0.027   0.000   0.029
   44       -0.001  -0.011   0.000  -0.013
   45       -0.001  -0.012   0.000  -0.013
   46        0.001   0.019   0.000   0.020
   47        0.004   0.068   0.000   0.072
   48       -0.001  -0.009   0.000  -0.010
   49       -0.001  -0.004   0.000  -0.005
   50       -0.018  -0.074   0.000  -0.092
   51       -0.016   0.002   0.000  -0.014
   52       -0.015  -0.047   0.000  -0.062
   53       -0.009  -0.029   0.000  -0.038
   54       -0.014  -0.045   0.000  -0.059
   55       -0.017  -0.053   0.000  -0.070
   56        0.003   0.098   0.000   0.101
   57        0.008   0.009  -0.568  -0.550
   58        0.058   0.022   2.846   2.926
--------------------------------------------------
tot         -0.012   0.216   2.278   2.482
 

 total amount of memory used by VASP MPI-rank0   133748. kBytes
=======================================================================

   base      :      30000. kBytes
   nonl-proj :       3785. kBytes
   fftplans  :      12971. kBytes
   grid      :      33177. kBytes
   one-center:         62. kBytes
   HF        :         23. kBytes
   nonlr-proj:      15402. kBytes
   wavefun   :      38328. kBytes
 
  
  
 General timing and accounting informations for this job:
 ========================================================
  
                  Total CPU time used (sec):     5075.148
                            User time (sec):     5051.093
                          System time (sec):       24.055
                         Elapsed time (sec):     5078.852
  
                   Maximum memory used (kb):      366620.
                   Average memory used (kb):           0.
  
                          Minor page faults:      4739492
                          Major page faults:            0
                 Voluntary context switches:         1079
