 vasp.5.4.4.18Apr17-6-g9f103f2a35 (build Feb 25 2019 10:51:38) complex          
  
 executed on             LinuxIFC date 2021.06.16  07:25:31
 running on   48 total cores
 distrk:  each k-point on   24 cores,    2 groups
 distr:  one band on NCORES_PER_BAND=  24 cores,    1 groups


--------------------------------------------------------------------------------------------------------


 INCAR:
 POTCAR:    PAW_PBE C 08Apr2002                   
 POTCAR:    PAW_PBE N 08Apr2002                   
 POTCAR:    PAW_PBE Fe 06Sep2000                  
 POTCAR:    PAW_PBE Ti 08Apr2002                  

 ----------------------------------------------------------------------------- 
|                                                                             |
|           W    W    AA    RRRRR   N    N  II  N    N   GGGG   !!!           |
|           W    W   A  A   R    R  NN   N  II  NN   N  G    G  !!!           |
|           W    W  A    A  R    R  N N  N  II  N N  N  G       !!!           |
|           W WW W  AAAAAA  RRRRR   N  N N  II  N  N N  G  GGG   !            |
|           WW  WW  A    A  R   R   N   NN  II  N   NN  G    G                |
|           W    W  A    A  R    R  N    N  II  N    N   GGGG   !!!           |
|                                                                             |
|      For optimal performance we recommend to set                            |
|        NCORE= 4 - approx SQRT( number of cores)                             |
|      NCORE specifies how many cores store one orbital (NPAR=cpu/NCORE).     |
|      This setting can  greatly improve the performance of VASP for DFT.     |
|      The default,   NCORE=1            might be grossly inefficient         |
|      on modern multi-core architectures or massively parallel machines.     |
|      Do your own testing !!!!                                               |
|      Unfortunately you need to use the default for GW and RPA calculations. |
|      (for HF NCORE is supported but not extensively tested yet)             |
|                                                                             |
 ----------------------------------------------------------------------------- 


 ----------------------------------------------------------------------------- 
|                                                                             |
|           W    W    AA    RRRRR   N    N  II  N    N   GGGG   !!!           |
|           W    W   A  A   R    R  NN   N  II  NN   N  G    G  !!!           |
|           W    W  A    A  R    R  N N  N  II  N N  N  G       !!!           |
|           W WW W  AAAAAA  RRRRR   N  N N  II  N  N N  G  GGG   !            |
|           WW  WW  A    A  R   R   N   NN  II  N   NN  G    G                |
|           W    W  A    A  R    R  N    N  II  N    N   GGGG   !!!           |
|                                                                             |
|      You have enabled k-point parallelism (KPAR>1).                         |
|      This developmental code was originally  written by Paul Kent at ORNL,  |
|      and carefully double checked in Vienna.                                |
|      GW as well as linear response parallelism added by Martijn Marsman     |
|      and Georg Kresse.                                                      |
|      Carefully verify results versus KPAR=1.                                |
|      Report problems to Paul Kent and Vienna.                               |
|                                                                             |
 ----------------------------------------------------------------------------- 

 POTCAR:    PAW_PBE C 08Apr2002                   
   VRHFIN =C: s2p2                                                              
   LEXCH  = PE                                                                  
   EATOM  =   147.1560 eV,   10.8157 Ry                                         
                                                                                
   TITEL  = PAW_PBE C 08Apr2002                                                 
   LULTRA =        F    use ultrasoft PP ?                                      
   IUNSCR =        1    unscreen: 0-lin 1-nonlin 2-no                           
   RPACOR =    1.200    partial core radius                                     
   POMASS =   12.011; ZVAL   =    4.000    mass and valenz                      
   RCORE  =    1.500    outmost cutoff radius                                   
   RWIGS  =    1.630; RWIGS  =    0.863    wigner-seitz radius (au A)           
   ENMAX  =  400.000; ENMIN  =  300.000 eV                                      
   ICORE  =        2    local potential                                         
   LCOR   =        T    correct aug charges                                     
   LPAW   =        T    paw PP                                                  
   EAUG   =  644.873                                                            
   DEXC   =    0.000                                                            
   RMAX   =    1.529    core radius for proj-oper                               
   RAUG   =    1.300    factor for augmentation sphere                          
   RDEP   =    1.501    radius for radial grids                                 
   RDEPT  =    1.300    core radius for aug-charge                              
                                                                                
   Atomic configuration                                                         
    4 entries                                                                   
     n  l   j            E        occ.                                          
     1  0  0.50      -273.3789   2.0000                                         
     2  0  0.50       -13.7508   2.0000                                         
     2  1  0.50        -5.2854   2.0000                                         
     3  2  1.50        -5.4423   0.0000                                         
   Description                                                                  
     l       E           TYP  RCUT    TYP  RCUT                                 
     0    -13.7508458     23  1.200                                             
     0     -8.2022199     23  1.200                                             
     1     -5.2854383     23  1.500                                             
     1     34.0145650     23  1.500                                             
     2     -5.4423304      7  1.500                                             
  local pseudopotential read in
  partial core-charges read in
  partial kinetic energy density read in
  atomic valenz-charges read in
  non local Contribution for L=           0  read in
    real space projection operators read in
  non local Contribution for L=           0  read in
    real space projection operators read in
  non local Contribution for L=           1  read in
    real space projection operators read in
  non local Contribution for L=           1  read in
    real space projection operators read in
    PAW grid and wavefunctions read in
 
   number of l-projection  operators is LMAX  =           4
   number of lm-projection operators is LMMAX =           8
 
 POTCAR:    PAW_PBE N 08Apr2002                   
   VRHFIN =N: s2p3                                                              
   LEXCH  = PE                                                                  
   EATOM  =   264.5486 eV,   19.4438 Ry                                         
                                                                                
   TITEL  = PAW_PBE N 08Apr2002                                                 
   LULTRA =        F    use ultrasoft PP ?                                      
   IUNSCR =        1    unscreen: 0-lin 1-nonlin 2-no                           
   RPACOR =    1.200    partial core radius                                     
   POMASS =   14.001; ZVAL   =    5.000    mass and valenz                      
   RCORE  =    1.500    outmost cutoff radius                                   
   RWIGS  =    1.400; RWIGS  =    0.741    wigner-seitz radius (au A)           
   ENMAX  =  400.000; ENMIN  =  300.000 eV                                      
   ICORE  =        2    local potential                                         
   LCOR   =        T    correct aug charges                                     
   LPAW   =        T    paw PP                                                  
   EAUG   =  627.112                                                            
   DEXC   =    0.000                                                            
   RMAX   =    1.529    core radius for proj-oper                               
   RAUG   =    1.300    factor for augmentation sphere                          
   RDEP   =    1.514    radius for radial grids                                 
   RDEPT  =    1.338    core radius for aug-charge                              
                                                                                
   Atomic configuration                                                         
    4 entries                                                                   
     n  l   j            E        occ.                                          
     1  0  0.50      -384.7179   2.0000                                         
     2  0  0.50       -18.5828   2.0000                                         
     2  1  0.50        -7.0898   3.0000                                         
     3  2  1.50        -6.8029   0.0000                                         
   Description                                                                  
     l       E           TYP  RCUT    TYP  RCUT                                 
     0    -18.5828119     23  1.200                                             
     0    -13.5018863     23  1.200                                             
     1     -7.0897853     23  1.500                                             
     1      9.5240782     23  1.500                                             
     2     -6.8029130      7  1.500                                             
  local pseudopotential read in
  partial core-charges read in
  partial kinetic energy density read in
  atomic valenz-charges read in
  non local Contribution for L=           0  read in
    real space projection operators read in
  non local Contribution for L=           0  read in
    real space projection operators read in
  non local Contribution for L=           1  read in
    real space projection operators read in
  non local Contribution for L=           1  read in
    real space projection operators read in
    PAW grid and wavefunctions read in
 
   number of l-projection  operators is LMAX  =           4
   number of lm-projection operators is LMMAX =           8
 
 POTCAR:    PAW_PBE Fe 06Sep2000                  
   VRHFIN =Fe:  d7 s1                                                           
   LEXCH  = PE                                                                  
   EATOM  =   594.3153 eV,   43.6809 Ry                                         
                                                                                
   TITEL  = PAW_PBE Fe 06Sep2000                                                
   LULTRA =        F    use ultrasoft PP ?                                      
   IUNSCR =        1    unscreen: 0-lin 1-nonlin 2-no                           
   RPACOR =    2.000    partial core radius                                     
   POMASS =   55.847; ZVAL   =    8.000    mass and valenz                      
   RCORE  =    2.300    outmost cutoff radius                                   
   RWIGS  =    2.460; RWIGS  =    1.302    wigner-seitz radius (au A)           
   ENMAX  =  267.882; ENMIN  =  200.911 eV                                      
   RCLOC  =    1.701    cutoff for local pot                                    
   LCOR   =        T    correct aug charges                                     
   LPAW   =        T    paw PP                                                  
   EAUG   =  511.368                                                            
   DEXC   =    0.000                                                            
   RMAX   =    2.356    core radius for proj-oper                               
   RAUG   =    1.300    factor for augmentation sphere                          
   RDEP   =    2.442    radius for radial grids                                 
   RDEPT  =    1.890    core radius for aug-charge                              
                                                                                
   Atomic configuration                                                         
    9 entries                                                                   
     n  l   j            E        occ.                                          
     1  0  0.50     -6993.8440   2.0000                                         
     2  0  0.50      -814.6047   2.0000                                         
     2  1  1.50      -693.3689   6.0000                                         
     3  0  0.50       -89.4732   2.0000                                         
     3  1  1.50       -55.6373   6.0000                                         
     3  2  2.50        -3.8151   7.0000                                         
     4  0  0.50        -4.2551   1.0000                                         
     4  1  1.50        -3.4015   0.0000                                         
     4  3  2.50        -1.3606   0.0000                                         
   Description                                                                  
     l       E           TYP  RCUT    TYP  RCUT                                 
     2     -3.8151135     23  2.300                                             
     2     -5.1756961     23  2.300                                             
     0     -4.2550963     23  2.300                                             
     0      7.2035603     23  2.300                                             
     1     -2.7211652     23  2.300                                             
     1     18.4316424     23  2.300                                             
  local pseudopotential read in
  partial core-charges read in
  partial kinetic energy density read in
  atomic valenz-charges read in
  non local Contribution for L=           2  read in
    real space projection operators read in
  non local Contribution for L=           2  read in
    real space projection operators read in
  non local Contribution for L=           0  read in
    real space projection operators read in
  non local Contribution for L=           0  read in
    real space projection operators read in
  non local Contribution for L=           1  read in
    real space projection operators read in
  non local Contribution for L=           1  read in
    real space projection operators read in
    PAW grid and wavefunctions read in
 
   number of l-projection  operators is LMAX  =           6
   number of lm-projection operators is LMMAX =          18
 
 POTCAR:    PAW_PBE Ti 08Apr2002                  
   VRHFIN =Ti: d3 s1                                                            
   LEXCH  = PE                                                                  
   EATOM  =    94.7928 eV,    6.9671 Ry                                         
                                                                                
   TITEL  = PAW_PBE Ti 08Apr2002                                                
   LULTRA =        F    use ultrasoft PP ?                                      
   IUNSCR =        1    unscreen: 0-lin 1-nonlin 2-no                           
   RPACOR =    2.200    partial core radius                                     
   POMASS =   47.880; ZVAL   =    4.000    mass and valenz                      
   RCORE  =    2.800    outmost cutoff radius                                   
   RWIGS  =    2.500; RWIGS  =    1.323    wigner-seitz radius (au A)           
   ENMAX  =  178.330; ENMIN  =  133.747 eV                                      
   RCLOC  =    2.215    cutoff for local pot                                    
   LCOR   =        T    correct aug charges                                     
   LPAW   =        T    paw PP                                                  
   EAUG   =  328.883                                                            
   DEXC   =    0.000                                                            
   RMAX   =    2.868    core radius for proj-oper                               
   RAUG   =    1.300    factor for augmentation sphere                          
   RDEP   =    2.885    radius for radial grids                                 
   RDEPT  =    2.320    core radius for aug-charge                              
                                                                                
   Atomic configuration                                                         
    9 entries                                                                   
     n  l   j            E        occ.                                          
     1  0  0.50     -4865.3608   2.0000                                         
     2  0  0.50      -533.1367   2.0000                                         
     2  1  1.50      -440.5031   6.0000                                         
     3  0  0.50       -59.3186   2.0000                                         
     3  1  1.50       -35.7012   6.0000                                         
     3  2  2.50        -1.9157   3.0000                                         
     4  0  0.50        -3.7291   1.0000                                         
     4  1  1.50        -4.0817   0.0000                                         
     4  3  2.50        -1.3606   0.0000                                         
   Description                                                                  
     l       E           TYP  RCUT    TYP  RCUT                                 
     2     -1.9156924     23  2.800                                             
     2     -0.4062961     23  2.800                                             
     0     -3.7290832     23  2.800                                             
     0     20.4087390     23  2.800                                             
     1     -5.4423304     23  2.800                                             
  local pseudopotential read in
  partial core-charges read in
  partial kinetic energy density read in
  atomic valenz-charges read in
  non local Contribution for L=           2  read in
    real space projection operators read in
  non local Contribution for L=           2  read in
    real space projection operators read in
  non local Contribution for L=           0  read in
    real space projection operators read in
  non local Contribution for L=           0  read in
    real space projection operators read in
  non local Contribution for L=           1  read in
    real space projection operators read in
    PAW grid and wavefunctions read in
 
   number of l-projection  operators is LMAX  =           5
   number of lm-projection operators is LMMAX =          15
 

 ----------------------------------------------------------------------------- 
|                                                                             |
|  ADVICE TO THIS USER RUNNING 'VASP/VAMP'   (HEAR YOUR MASTER'S VOICE ...):  |
|                                                                             |
|      You have a (more or less) 'large supercell' and for larger cells       |
|      it might be more efficient to use real space projection opertators     |
|      So try LREAL= Auto  in the INCAR   file.                               |
|      Mind:          For very  accurate calculation you might also keep the  |
|      reciprocal projection scheme          (i.e. LREAL=.FALSE.)             |
|                                                                             |
 ----------------------------------------------------------------------------- 

  PAW_PBE C 08Apr2002                   :
 energy of atom  1       EATOM= -147.1560
 kinetic energy error for atom=    0.0076 (will be added to EATOM!!)
  PAW_PBE N 08Apr2002                   :
 energy of atom  2       EATOM= -264.5486
 kinetic energy error for atom=    0.0138 (will be added to EATOM!!)
  PAW_PBE Fe 06Sep2000                  :
 energy of atom  3       EATOM= -594.3153
 kinetic energy error for atom=    0.0026 (will be added to EATOM!!)
  PAW_PBE Ti 08Apr2002                  :
 energy of atom  4       EATOM=  -94.7928
 kinetic energy error for atom=    0.0002 (will be added to EATOM!!)
 
 
 POSCAR:  C  N Fe Ti                             
  positions in cartesian coordinates
  No initial velocities read in
 exchange correlation table for  LEXCH =        8
   RHO(1)=    0.500       N(1)  =     2000
   RHO(2)=  100.500       N(2)  =     4000

 VTST: version 3.2, (02/03/18)

 CHAIN: initializing optimizer
 
 OPT: Using VASP Conjugate-Gradient optimizer
 CHAIN: Read ICHAIN            0
 
 POSCAR:  C  N Fe Ti                             
  positions in cartesian coordinates
  No initial velocities read in
 


--------------------------------------------------------------------------------------------------------


 ion  position               nearest neighbor table
   1  0.223  0.003  0.500-  19 1.42   3 1.43   4 1.44
   2  0.059  0.103  0.500-  36 1.42   3 1.43   7 1.44
   3  0.111  0.002  0.500-   1 1.43   2 1.43  17 1.43
   4  0.279  0.105  0.499-  21 1.42   1 1.44   5 1.44
   5  0.227  0.207  0.499-   7 1.43   4 1.44   8 1.46
   6  0.061  0.304  0.500-   7 1.43  40 1.44  11 1.44
   7  0.115  0.204  0.500-   6 1.43   5 1.43   2 1.44
   8  0.285  0.309  0.499-  25 1.44   5 1.46   9 1.47
   9  0.229  0.411  0.501-  53 1.40  11 1.45   8 1.47
  10  0.056  0.503  0.501-  14 1.42  44 1.44  11 1.45
  11  0.116  0.406  0.501-   6 1.44  10 1.45   9 1.45
  12  0.222  0.605  0.503-  53 1.40  15 1.42  14 1.43
  13  0.053  0.702  0.501-  18 1.42  14 1.43  48 1.44
  14  0.110  0.604  0.501-  10 1.42  12 1.43  13 1.43
  15  0.276  0.705  0.502-  56 1.40  12 1.42  16 1.42
  16  0.220  0.803  0.502-  15 1.42  18 1.43  19 1.43
  17  0.054  0.902  0.500-  18 1.43  52 1.43   3 1.43
  18  0.109  0.802  0.501-  13 1.42  16 1.43  17 1.43
  19  0.277  0.904  0.501-   1 1.42  16 1.43  30 1.43
  20  0.556  0.998  0.499-  23 1.42  22 1.42  32 1.43
  21  0.390  0.102  0.498-   4 1.42  26 1.42  22 1.44
  22  0.445  0.001  0.499-  20 1.42  30 1.42  21 1.44
  23  0.613  0.097  0.497-  24 1.42  20 1.42  34 1.42
  24  0.559  0.195  0.496-  27 1.40  23 1.42  26 1.42
  25  0.397  0.303  0.495-  54 1.37   8 1.44  26 1.44
  26  0.448  0.200  0.496-  21 1.42  24 1.42  25 1.44
  27  0.618  0.291  0.495-  28 1.39  24 1.40  38 1.41
  28  0.564  0.388  0.493-  55 1.36  54 1.36  27 1.39  59 2.54
  29  0.553  0.799  0.501-  57 1.39  32 1.42  31 1.43
  30  0.388  0.902  0.501-  22 1.42  31 1.42  19 1.43
  31  0.442  0.802  0.502-  56 1.40  30 1.42  29 1.43
  32  0.609  0.899  0.500-  29 1.42  50 1.42  20 1.43
  33  0.890  1.000  0.500-  52 1.42  35 1.43  36 1.44
  34  0.725  0.098  0.498-  23 1.42  35 1.42  39 1.43
  35  0.778  0.998  0.499-  34 1.42  33 1.43  50 1.43
  36  0.947  0.100  0.500-   2 1.42  37 1.43  33 1.44
  37  0.893  0.200  0.499-  39 1.42  36 1.43  40 1.43
  38  0.728  0.295  0.497-  27 1.41  39 1.41  43 1.42
  39  0.782  0.197  0.498-  38 1.41  37 1.42  34 1.43
  40  0.948  0.301  0.499-  37 1.43   6 1.44  41 1.44
  41  0.891  0.400  0.499-  44 1.42  43 1.42  40 1.44
  42  0.720  0.494  0.497-  55 1.37  47 1.43  43 1.44
  43  0.780  0.397  0.497-  38 1.42  41 1.42  42 1.44
  44  0.944  0.502  0.500-  41 1.42  10 1.44  45 1.45
  45  0.884  0.600  0.500-  48 1.43  44 1.45  47 1.46
  46  0.711  0.698  0.500-  57 1.40  51 1.45  47 1.46
  47  0.770  0.598  0.500-  42 1.43  45 1.46  46 1.46
  48  0.941  0.700  0.501-  45 1.43  49 1.43  13 1.44
  49  0.885  0.799  0.500-  48 1.43  51 1.44  52 1.44
  50  0.721  0.898  0.500-  32 1.42  35 1.43  51 1.43
  51  0.772  0.797  0.500-  50 1.43  49 1.44  46 1.45
  52  0.943  0.900  0.500-  33 1.42  17 1.43  49 1.44
  53  0.282  0.511  0.505-   9 1.40  12 1.40  58 2.41  59 2.47
  54  0.459  0.395  0.491-  28 1.36  25 1.37  59 2.12
  55  0.613  0.486  0.495-  28 1.36  42 1.37  59 2.11
  56  0.386  0.704  0.504-  31 1.40  15 1.40  59 2.05  58 2.40
  57  0.601  0.699  0.501-  29 1.39  46 1.40  59 2.36
  58  0.387  0.579  0.596-  59 2.15  56 2.40  53 2.41
  59  0.469  0.564  0.504-  56 2.05  55 2.11  54 2.12  58 2.15  57 2.36  53 2.47  28 2.54
 
  LATTYP: Found a triclinic cell.
 ALAT       =    17.6621303357
 B/A-ratio  =     0.7243237230
 C/A-ratio  =     1.3262408660
 COS(alpha) =     0.0013097910
 COS(beta)  =     0.3660003693
 COS(gamma) =     0.7116538015
  
  Lattice vectors:
  
 A1 = (  12.5693221958,  12.4081822816,   0.0000000000)
 A2 = (  12.7931000000,   0.0000000000,   0.0000000000)
 A3 = (   0.0306808571,  12.1723512887, -20.0131930729)


Analysis of symmetry for initial positions (statically):
=====================================================================
 Subroutine PRICEL returns:
 Original cell was already a primitive cell.
 

 Routine SETGRP: Setting up the symmetry group for a 
 triclinic supercell.


 Subroutine GETGRP returns: Found  1 space group operations
 (whereof  1 operations were pure point group operations)
 out of a pool of  2 trial point group operations.


The static configuration has the point symmetry C_1 .


Analysis of symmetry for dynamics (positions and initial velocities):
=====================================================================
 Subroutine PRICEL returns:
 Original cell was already a primitive cell.
 

 Routine SETGRP: Setting up the symmetry group for a 
 triclinic supercell.


 Subroutine GETGRP returns: Found  1 space group operations
 (whereof  1 operations were pure point group operations)
 out of a pool of  2 trial point group operations.


The dynamic configuration has the point symmetry C_1 .


Analysis of structural, dynamic, and magnetic symmetry:
=====================================================================
 Subroutine PRICEL returns:
 Original cell was already a primitive cell.
 

 Routine SETGRP: Setting up the symmetry group for a 
 triclinic supercell.


 Subroutine GETGRP returns: Found  1 space group operations
 (whereof  1 operations were pure point group operations)
 out of a pool of  2 trial point group operations.


The magnetic configuration has the point symmetry C_1 .


 Subroutine INISYM returns: Found  1 space group operations
 (whereof  1 operations are pure point group operations),
 and found     1 'primitive' translations

 
 
 KPOINTS: KPOINTS created by Atomic Simulation Env

Automatic generation of k-mesh.
Space group operators:
 irot       det(A)        alpha          n_x          n_y          n_z        tau_x        tau_y        tau_z
    1     1.000000     0.000000     1.000000     0.000000     0.000000     0.000000     0.000000     0.000000
 
 Subroutine IBZKPT returns following result:
 ===========================================
 
 Found      2 irreducible k-points:
 
 Following reciprocal coordinates:
            Coordinates               Weight
  0.250000  0.250000  0.000000      2.000000
 -0.250000  0.250000 -0.000000      2.000000
 
 Following cartesian coordinates:
            Coordinates               Weight
  0.019542  0.020500  0.000007      2.000000
 -0.019542  0.019796 -0.000482      2.000000
 
 
 Subroutine IBZKPT_HF returns following result:
 ==============================================
 
 Found      4 k-points in 1st BZ
 the following      4 k-points will be used (e.g. in the exchange kernel)
 Following reciprocal coordinates:   # in IRBZ
  0.250000  0.250000  0.000000    0.25000000   1 t-inv F
 -0.250000  0.250000 -0.000000    0.25000000   2 t-inv F
 -0.250000 -0.250000 -0.000000    0.25000000   1 t-inv T
  0.250000 -0.250000  0.000000    0.25000000   2 t-inv T


--------------------------------------------------------------------------------------------------------




 Dimension of arrays:
   k-points           NKPTS =      2   k-points in BZ     NKDIM =      4   number of bands    NBANDS=    156
   number of dos      NEDOS =    301   number of ions     NIONS =     59
   non local maximal  LDIM  =      6   non local SUM 2l+1 LMDIM =     18
   total plane-waves  NPLWV = ******
   max r-space proj   IRMAX =      1   max aug-charges    IRDMAX=  30249
   dimension x,y,z NGX =    96 NGY =   96 NGZ =  150
   dimension x,y,z NGXF=   192 NGYF=  192 NGZF=  300
   support grid    NGXF=   192 NGYF=  192 NGZF=  300
   ions per type =              52   5   1   1
   NGX,Y,Z   is equivalent  to a cutoff of  12.48, 12.86, 12.46 a.u.
   NGXF,Y,Z  is equivalent  to a cutoff of  24.95, 25.72, 24.92 a.u.

 SYSTEM =  unknown system                          
 POSCAR =   C  N Fe Ti                             

 Startparameter for this run:
   NWRITE =      2    write-flag & timer
   PREC   = accura    normal or accurate (medium, high low for compatibility)
   ISTART =      1    job   : 0-new  1-cont  2-samecut
   ICHARG =      0    charge: 1-file 2-atom 10-const
   ISPIN  =      2    spin polarized calculation?
   LNONCOLLINEAR =      F non collinear calculations
   LSORBIT =      F    spin-orbit coupling
   INIWAV =      1    electr: 0-lowe 1-rand  2-diag
   LASPH  =      T    aspherical Exc in radial PAW
   METAGGA=      F    non-selfconsistent MetaGGA calc.

 Electronic Relaxation 1
   ENCUT  =  500.0 eV  36.75 Ry    6.06 a.u.  23.32 22.63 36.49*2*pi/ulx,y,z
   ENINI  =  500.0     initial cutoff
   ENAUG  =  644.9 eV  augmentation charge cutoff
   NELM   =    250;   NELMIN=  2; NELMDL=  0     # of ELM steps 
   EDIFF  = 0.1E-03   stopping-criterion for ELM
   LREAL  =      F    real-space projection
   NLSPLINE    = F    spline interpolate recip. space projectors
   LCOMPAT=      F    compatible to vasp.4.4
   GGA_COMPAT  = T    GGA compatible to vasp.4.4-vasp.4.6
   LMAXPAW     = -100 max onsite density
   LMAXMIX     =    2 max onsite mixed and CHGCAR
   VOSKOWN=      0    Vosko Wilk Nusair interpolation
   ROPT   =    0.00000   0.00000   0.00000   0.00000
 Ionic relaxation
   EDIFFG = -.3E-01   stopping-criterion for IOM
   NSW    =      0    number of steps for IOM
   NBLOCK =      1;   KBLOCK =      1    inner block; outer block 
   IBRION =     -1    ionic relax: 0-MD 1-quasi-New 2-CG
   NFREE  =      1    steps in history (QN), initial steepest desc. (CG)
   ISIF   =      2    stress and relaxation
   IWAVPR =     10    prediction:  0-non 1-charg 2-wave 3-comb
   ISYM   =      3    0-nonsym 1-usesym 2-fastsym
   LCORR  =      T    Harris-Foulkes like correction to forces

   POTIM  = 0.5000    time-step for ionic-motion
   TEIN   =    0.0    initial temperature
   TEBEG  =    0.0;   TEEND  =   0.0 temperature during run
   SMASS  =  -3.00    Nose mass-parameter (am)
   estimated Nose-frequenzy (Omega)   =  0.10E-29 period in steps =****** mass=  -0.374E-26a.u.
   SCALEE = 1.0000    scale energy and forces
   NPACO  =    256;   APACO  = 16.0  distance and # of slots for P.C.
   PSTRESS=    0.0 pullay stress

  Mass of Ions in am
   POMASS =  12.01 14.00 55.85 47.88
  Ionic Valenz
   ZVAL   =   4.00  5.00  8.00  4.00
  Atomic Wigner-Seitz radii
   RWIGS  =  -1.00 -1.00 -1.00 -1.00
  virtual crystal weights 
   VCA    =   1.00  1.00  1.00  1.00
   NELECT =     245.0000    total number of electrons
   NUPDOWN=      -1.0000    fix difference up-down

 DOS related values:
   EMIN   =  10.00;   EMAX   =-10.00  energy-range for DOS
   EFERMI =   0.00
   ISMEAR =     0;   SIGMA  =   0.10  broadening in eV -4-tet -1-fermi 0-gaus

 Electronic relaxation 2 (details)
   IALGO  =     53    algorithm
   LDIAG  =      T    sub-space diagonalisation (order eigenvalues)
   LSUBROT=      F    optimize rotation matrix (better conditioning)
   TURBO    =      0    0=normal 1=particle mesh
   IRESTART =      0    0=no restart 2=restart with 2 vectors
   NREBOOT  =      0    no. of reboots
   NMIN     =      0    reboot dimension
   EREF     =   0.00    reference energy to select bands
   IMIX   =      4    mixing-type and parameters
     AMIX     =   0.40;   BMIX     =  1.00
     AMIX_MAG =   1.60;   BMIX_MAG =  1.00
     AMIN     =   0.10
     WC   =   100.;   INIMIX=   1;  MIXPRE=   1;  MAXMIX= -45

 Intra band minimization:
   WEIMIN = 0.0000     energy-eigenvalue tresh-hold
   EBREAK =  0.16E-06  absolut break condition
   DEPER  =   0.30     relativ break condition  

   TIME   =   0.20     timestep for ELM

  volume/ion in A,a.u.               =      53.85       363.37
  Fermi-wavevector in a.u.,A,eV,Ry     =   0.696835  1.316828  6.606707  0.485579
  Thomas-Fermi vector in A             =   1.779996
 
 Write flags
   LWAVE        =      T    write WAVECAR
   LDOWNSAMPLE  =      F    k-point downsampling of WAVECAR
   LCHARG       =      T    write CHGCAR
   LVTOT        =      F    write LOCPOT, total local potential
   LVHAR        =      F    write LOCPOT, Hartree potential only
   LELF         =      F    write electronic localiz. function (ELF)
   LORBIT       =     11    0 simple, 1 ext, 2 COOP (PROOUT), +10 PAW based schemes


 Dipole corrections
   LMONO  =      F    monopole corrections only (constant potential shift)
   LDIPOL =      T    correct potential (dipole corrections)
   IDIPOL =      3    1-x, 2-y, 3-z, 4-all directions 
   EPSILON=  1.0000000 bulk dielectric constant

 Exchange correlation treatment:
   GGA     =    PE    GGA type
   LEXCH   =     8    internal setting for exchange type
   VOSKOWN=      0    Vosko Wilk Nusair interpolation
   EXXOEP  =     0    0=HF, 1=EXX-LHF (local Hartree Fock) 2=EXX OEP
   LHFCALC =     T    Hartree Fock is set to
   LSYMGRAD=     F    symmetrize gradient (conserves proper symmetry)
   PRECFOCK=normal    Normal, Fast or Accurate (Low or Medium for compatibility)
   LRHFCALC=     F    long range Hartree Fock
   LRSCOR  =     F    long range correlation only (use DFT for short range part)
   LTHOMAS =     F    Thomas Fermi screening in HF
   LMODELHF=     F    short range full HF, long range fraction AEXX
   ENCUT4O =  -1.0   cutoff for four orbital integrals eV
   LMAXFOCK=     4    L truncation for augmentation on plane wave grid
   LMAXFOCKAE=  -1    L truncation for all-electron charge restoration on plane wave grid
   NMAXFOCKAE=   1    number of basis functions for all-electron charge restoration
   LFOCKAEDFT=     F  apply the AE augmentation even for DFT
   NKREDX  =     1    reduce k-point grid by
   NKREDY  =     1    reduce k-point grid by
   NKREDZ  =     1    reduce k-point grid by
   SHIFTRED=     F    shift reduced grid of Gamma
   HFKIDENT=     F    idential grid for each k-point
   ODDONLY =     F    use only odd q-grid points
   EVENONLY=     F    use only even q-grid points
   HFALPHA =   -1.0000 decay constant for conv. correction
   MCALPHA =    0.0000 extent of test-charge in conv. correction in multipole expansion
   AEXX    =    0.2500 exact exchange contribution
   HFSCREEN=    0.2000 screening length (either q_TF or 0.3 A-1)
   HFSCREENC=   0.2000 screening length for correlation (either q_TF or 0.3 A-1)
   HFRCUT  =    0.0000 spherical cutoff for potential kernel
   ALDAX   =    0.7500 LDA exchange part
   AGGAX   =    0.7500 GGA exchange part
   ALDAC   =    1.0000 LDA correlation
   AGGAC   =    1.0000 GGA correlation
   ENCUTFOCK=  -1.0 apply spherical cutoff to Coloumb kernel
   NBANDSGWLOW=     1    first orbital included in HF term
   NBLOCK_FOCK=    64    blocking factor in FOCK_ACC
 Linear response parameters
   LEPSILON=     F    determine dielectric tensor
   LRPA    =     F    only Hartree local field effects (RPA)
   LNABLA  =     F    use nabla operator in PAW spheres
   LVEL    =     F    velocity operator in full k-point grid
   LINTERFAST=   F  fast interpolation
   KINTER  =     0    interpolate to denser k-point grid
   CSHIFT  =0.1000    complex shift for real part using Kramers Kronig
   OMEGAMAX=  -1.0    maximum frequency
   DEG_THRESHOLD= 0.2000000E-02 threshold for treating states as degnerate
   RTIME   =   -0.100 relaxation time in fs
  (WPLASMAI=    0.000 imaginary part of plasma frequency in eV, 0.658/RTIME)
   DFIELD  = 0.0000000 0.0000000 0.0000000 field for delta impulse in time
 
 Orbital magnetization related:
   ORBITALMAG=     F  switch on orbital magnetization
   LCHIMAG   =     F  perturbation theory with respect to B field
   DQ        =  0.001000  dq finite difference perturbation B field
   LLRAUG    =     F  two centre corrections for induced B field



--------------------------------------------------------------------------------------------------------


 Static calculation
 charge density and potential will be updated during run
 spin polarized calculation
 Conjugate gradient for all bands (Freysoldt, et al. PRB 79, 241103 (2009))
 perform sub-space diagonalisation
    before iterative eigenvector-optimisation
 modified Broyden-mixing scheme, WC =      100.0
 initial mixing is a Kerker type mixing with AMIX =  0.4000 and BMIX =      1.0000
 Hartree-type preconditioning will be used
 using additional bands           33
 reciprocal scheme for non local part
 use partial core corrections
 no Harris-corrections to forces 
 use gradient corrections 
 use of overlap-Matrix (Vanderbilt PP)
 Gauss-broadening in eV      SIGMA  =   0.10


--------------------------------------------------------------------------------------------------------


  energy-cutoff  :      500.00
  volume of cell :     3176.88
      direct lattice vectors                 reciprocal lattice vectors
    12.793100000  0.000000000  0.000000000     0.078167137  0.001409721  0.000977248
    -0.223777804 12.408182282  0.000000000     0.000000000  0.080591982 -0.000949678
    -0.254458661  0.235830993 20.013193073     0.000000000  0.000000000  0.049967039

  length of vectors
    12.793100000 12.410200000 20.016200000     0.078185955  0.080597577  0.049967039


 
 old parameters found on file WAVECAR:
  energy-cutoff  :      500.00
  volume of cell :     3176.88
      direct lattice vectors                 reciprocal lattice vectors
    12.793100000  0.000000000  0.000000000     0.078167137  0.001409721  0.000977248
    -0.223777804 12.408182282  0.000000000     0.000000000  0.080591982 -0.000949678
    -0.254458661  0.235830993 20.013193073     0.000000000  0.000000000  0.049967039

  length of vectors

 
 k-points in units of 2pi/SCALE and weight: KPOINTS created by Atomic Simulation Env
   0.01954178  0.02050043  0.00000689       0.500
  -0.01954178  0.01979557 -0.00048173       0.500
 
 k-points in reciprocal lattice and weights: KPOINTS created by Atomic Simulation Env
   0.25000000  0.25000000  0.00000000       0.500
  -0.25000000  0.25000000 -0.00000000       0.500
 
 position of ions in fractional coordinates (direct lattice) 
   0.22287284  0.00341642  0.50018733
   0.05873522  0.10266774  0.49994685
   0.11138435  0.00224996  0.50025713
   0.27949394  0.10471992  0.49915564
   0.22744363  0.20688280  0.49932873
   0.06073558  0.30382606  0.49983714
   0.11543679  0.20429071  0.49991331
   0.28518734  0.30909572  0.49865652
   0.22945264  0.41123507  0.50131829
   0.05592643  0.50334666  0.50103771
   0.11599857  0.40576109  0.50065737
   0.22185676  0.60472461  0.50258992
   0.05283763  0.70188693  0.50102043
   0.11010692  0.60397506  0.50147122
   0.27627185  0.70548272  0.50245048
   0.22034638  0.80346538  0.50162102
   0.05435228  0.90174002  0.50046821
   0.10884157  0.80215837  0.50102528
   0.27654329  0.90400382  0.50101847
   0.55555582  0.99824126  0.49870313
   0.39021180  0.10156184  0.49821994
   0.44471470  0.00118667  0.49914852
   0.61336766  0.09665139  0.49734162
   0.55894638  0.19498934  0.49559925
   0.39736127  0.30332639  0.49498017
   0.44783659  0.20038339  0.49601512
   0.61791762  0.29129404  0.49476315
   0.56438182  0.38795920  0.49253934
   0.55298754  0.79858258  0.50082693
   0.38823636  0.90158613  0.50079919
   0.44156299  0.80208307  0.50174179
   0.60929051  0.89857377  0.49968952
   0.88981460  0.99972579  0.49955945
   0.72461410  0.09766138  0.49796500
   0.77829911  0.99814751  0.49906781
   0.94735316  0.10036412  0.49952171
   0.89344499  0.19993050  0.49892472
   0.72783747  0.29537385  0.49663119
   0.78237878  0.19726938  0.49784708
   0.94848381  0.30146843  0.49927958
   0.89119737  0.39998123  0.49909523
   0.71963341  0.49404984  0.49742079
   0.78007482  0.39733927  0.49749692
   0.94371256  0.50179812  0.50025471
   0.88377736  0.59982602  0.50039034
   0.71068845  0.69766582  0.50037088
   0.76996895  0.59790257  0.49971867
   0.94051476  0.69981326  0.50068203
   0.88478904  0.79862267  0.50030165
   0.72056780  0.89842866  0.49962181
   0.77227105  0.79714780  0.50018117
   0.94252722  0.89955456  0.50013104
   0.28191735  0.51112978  0.50469320
   0.45850991  0.39507653  0.49058017
   0.61305041  0.48579219  0.49476689
   0.38593195  0.70401372  0.50399971
   0.60145693  0.69907523  0.50109453
   0.38742239  0.57874848  0.59621993
   0.46890715  0.56431512  0.50367504
 
 position of ions in cartesian coordinates  (Angst):
   2.72319298  0.16035128 10.01034563
   0.60121495  1.39182305 10.00553285
   1.29715291  0.14589403 10.01174249
   3.42514540  1.41710028  9.98969828
   2.73635476  2.68479668  9.99316233
   0.58181897  3.88780628 10.00333726
   1.30387143  2.65277146 10.00486162
   3.45237398  3.95291468  9.97970918
   2.71582052  5.22090606 10.03297979
   0.47534124  6.36377730 10.02736442
   1.26578441  5.15282811 10.01975270
   2.57502338  7.62205952 10.05842909
   0.39140136  8.82729717 10.02701856
   1.14584890  7.61249515 10.03604038
   3.24864913  8.87225152 10.05563853
   2.51147371 10.08784267 10.03903842
   0.36619634 11.30698048 10.01596700
   1.08542562 10.07148452 10.02711576
   3.20806151 11.33519989 10.02697931
   6.75699753 12.50396921  9.98064206
   4.84251489  1.37769349  9.97097182
   5.56200144  0.13243915  9.98955566
   7.69869251  1.31655666  9.95339396
   6.98091317  2.53634099  9.91852357
   4.88965270  3.88046085  9.90613362
   5.55816160  2.60336939  9.92684643
   7.71400001  3.73110998  9.90179052
   7.00804551  4.93002449  9.85728482
   6.76828007 10.02706879 10.02314603
   4.63755889 11.30514900 10.02259088
   5.34179856 10.07071919 10.04145540
   7.46648328 11.26750942 10.00038277
  11.03265352 12.52259140  9.99777970
   9.12149472  1.32923578  9.96586970
   9.60650299 12.50289195  9.98794040
  11.97001684  1.36313899  9.99702434
  11.25823544  2.59843602  9.98507685
   9.11882730  3.78217359  9.93917586
   9.83822402  2.56516221  9.96350979
  11.93954025  3.85842083  9.99217863
  11.18467106  5.08074208  9.98848915
   8.96921172  6.24756769  9.95497829
   9.76406702  5.04758331  9.95650191
  11.83342378  6.34437815 10.01169401
  11.04469572  7.56075820 10.01440855
   8.80846259  8.77476758 10.01401895
   9.58933476  7.53673321 10.00096615
  11.74809383  8.80148685 10.02024611
  11.01317450 10.02744228 10.01263349
   8.89011445 11.26569284  9.99902771
   9.57408132 10.00911346 10.01022231
  11.72928198 11.27978338 10.00921901
   3.36379383  6.46121372 10.10052242
   5.65252139  5.01787564  9.81807567
   7.60820802  6.14447944  9.90186539
   4.65147631  8.85438931 10.08664353
   7.41055331  8.79242651 10.02850165
   4.67510905  7.32182382 11.93226461
   5.74433043  7.12090703 10.08014592
 


--------------------------------------------------------------------------------------------------------


 k-point  1 :   0.2500 0.2500 0.0000  plane waves:   80670
 k-point  2 :  -0.2500 0.2500-0.0000  plane waves:   80652

 maximum and minimum number of plane-waves per node :      3392     3318

 maximum number of plane-waves:     80670
 maximum index in each direction: 
   IXMAX=   23   IYMAX=   22   IZMAX=   36
   IXMIN=  -23   IYMIN=  -22   IZMIN=  -36


 parallel 3D FFT for wavefunctions:
    minimum data exchange during FFTs selected (reduces bandwidth)
 parallel 3D FFT for charge:
    minimum data exchange during FFTs selected (reduces bandwidth)


 FFT grid for exact exchange (Hartree Fock) 
  NGX = 70; NGY = 70; NGZ =112

 
 Radii for the augmentation spheres in the non-local exchange
 for species   1 augmentation radius   0.874 (default was   0.699)
       energy cutoff for augmentation   2000.0
 for species   2 augmentation radius   0.886 (default was   0.709)
       energy cutoff for augmentation   2000.0
 for species   3 augmentation radius   1.263 (default was   1.010)
       energy cutoff for augmentation   2000.0
 for species   4 augmentation radius   1.575 (default was   1.260)
       energy cutoff for augmentation   2000.0

 real space projection operators:
  total allocation   :       2767.83 KBytes
  max/ min on nodes  :        187.23         52.28

 Maximum index for augmentation-charges in exchange          126
  SETUP_FOCK is finished

 total amount of memory used by VASP MPI-rank0   210866. kBytes
=======================================================================

   base      :      30000. kBytes
   nonl-proj :       7126. kBytes
   fftplans  :      18623. kBytes
   grid      :      49102. kBytes
   one-center:         93. kBytes
   HF        :         23. kBytes
   nonlr-proj:       3044. kBytes
   wavefun   :     102855. kBytes
 
     INWAV:  cpu time    3.4446: real time    5.9767
 Broyden mixing: mesh for mixing (old mesh)
   NGX = 47   NGY = 45   NGZ = 73
  (NGX  =192   NGY  =192   NGZ  =300)
  gives a total of 154395 points

 charge density for first step will be calculated from the start-wavefunctions


--------------------------------------------------------------------------------------------------------


 Maximum index for augmentation-charges         1143 (set IRDMAX)


--------------------------------------------------------------------------------------------------------


 initial charge from wavefunction
 First call to EWALD:  gamma=   0.121
 Maximum number of real-space cells 3x 3x 2
 Maximum number of reciprocal cells 2x 2x 4

    FEWALD:  cpu time    0.0027: real time    0.0027


--------------------------------------- Iteration      1(   1)  ---------------------------------------


    POTLOK:  cpu time    2.3087: real time    2.3108
    SETDIJ:  cpu time    2.0197: real time    2.0209
    TRIAL :  cpu time  336.5686: real time  336.9110
    CORREC:  cpu time    0.0010: real time    0.0010
    CHARGE:  cpu time    1.4014: real time    1.4023
    --------------------------------------------
      LOOP:  cpu time  342.3337: real time  342.6822

 eigenvalue-minimisations  :     0
 total energy-change (2. order) :-0.6192405E+03  (-0.4577031E+00)
 number of electron     244.9999997 magnetization       2.9719675
 augmentation part       11.3496691 magnetization       1.7601844

 DIPCOR: dipole corrections for dipol
 direction  3 min pos     1,
 dipolmoment          -0.000348      0.000322      0.027342 electrons x Angstroem
 Tr[quadrupol]     -6538.991960

 energy correction for charged system         0.000000 eV
 dipol+quadrupol energy correction            0.000021 eV
 added-field ion interaction          0.000000 eV  (added to PSCEN)


 Free energy of the ion-electron system (eV)
  ---------------------------------------------------
  alpha Z        PSCENC =       104.12341539
  Ewald energy   TEWEN  =     39078.20477830
  -Hartree energ DENC   =    -47306.51850548
  -exchange      EXHF   =       553.75716154
  -V(xc)+E(xc)   XCENC  =       600.79501268
  PAW double counting   =     26404.12458768   -26409.03817622
  entropy T*S    EENTRO =        -0.00480123
  eigenvalues    EBANDS =     -3194.77069841
  atomic energy  EATOM  =      9550.08961182
  ---------------------------------------------------
  free energy    TOTEN  =      -619.24049241 eV

  energy without entropy =     -619.23569118  energy(sigma->0) =     -619.23809180
  exchange ACFDT corr.  =        -0.00417475  see jH, gK, PRB 81, 115126


--------------------------------------------------------------------------------------------------------




--------------------------------------- Iteration      1(   2)  ---------------------------------------


    POTLOK:  cpu time    2.3356: real time    2.3419
    SETDIJ:  cpu time    2.0177: real time    2.0190
    TRIAL :  cpu time  336.0522: real time  336.3868
    CORREC:  cpu time    0.0010: real time    0.0010
    CHARGE:  cpu time    1.3950: real time    1.3961
    --------------------------------------------
      LOOP:  cpu time  341.8023: real time  342.1487

 eigenvalue-minimisations  :     0
 total energy-change (2. order) :-0.3643102E+00  (-0.3720804E+00)
 number of electron     244.9999997 magnetization       2.9865019
 augmentation part       11.2922131 magnetization       1.8143656

 DIPCOR: dipole corrections for dipol
 direction  3 min pos     1,
 dipolmoment          -0.000728      0.000675      0.057262 electrons x Angstroem
 Tr[quadrupol]     -6538.729741

 energy correction for charged system         0.000000 eV
 dipol+quadrupol energy correction            0.000094 eV
 added-field ion interaction          0.000000 eV  (added to PSCEN)


 Free energy of the ion-electron system (eV)
  ---------------------------------------------------
  alpha Z        PSCENC =       104.12348776
  Ewald energy   TEWEN  =     39078.20477830
  -Hartree energ DENC   =    -47290.24913240
  -exchange      EXHF   =       553.64473600
  -V(xc)+E(xc)   XCENC  =       600.51695073
  PAW double counting   =     26535.29576906   -26540.08871265
  entropy T*S    EENTRO =        -0.00261524
  eigenvalues    EBANDS =     -3211.13749004
  atomic energy  EATOM  =      9550.08961182
  ---------------------------------------------------
  free energy    TOTEN  =      -619.60480264 eV

  energy without entropy =     -619.60218740  energy(sigma->0) =     -619.60349502
  exchange ACFDT corr.  =        -0.00415124  see jH, gK, PRB 81, 115126


--------------------------------------------------------------------------------------------------------




--------------------------------------- Iteration      1(   3)  ---------------------------------------


    POTLOK:  cpu time    2.3589: real time    2.3600
    SETDIJ:  cpu time    2.0195: real time    2.0206
    TRIAL :  cpu time  335.1926: real time  335.4592
    CORREC:  cpu time    0.0010: real time    0.0010
    CHARGE:  cpu time    1.3907: real time    1.3921
    --------------------------------------------
      LOOP:  cpu time  340.9644: real time  341.2373

 eigenvalue-minimisations  :     0
 total energy-change (2. order) :-0.2780528E+00  (-0.1987171E+00)
 number of electron     244.9999997 magnetization       2.9935312
 augmentation part       11.2674995 magnetization       1.8544111

 DIPCOR: dipole corrections for dipol
 direction  3 min pos     1,
 dipolmoment          -0.000272      0.000252      0.021399 electrons x Angstroem
 Tr[quadrupol]     -6538.586461

 energy correction for charged system         0.000000 eV
 dipol+quadrupol energy correction            0.000013 eV
 added-field ion interaction          0.000000 eV  (added to PSCEN)


 Free energy of the ion-electron system (eV)
  ---------------------------------------------------
  alpha Z        PSCENC =       104.12340711
  Ewald energy   TEWEN  =     39078.20477830
  -Hartree energ DENC   =    -47273.81917455
  -exchange      EXHF   =       553.51082002
  -V(xc)+E(xc)   XCENC  =       600.15610013
  PAW double counting   =     26698.53780336   -26702.97635590
  entropy T*S    EENTRO =        -0.00139743
  eigenvalues    EBANDS =     -3227.70723052
  atomic energy  EATOM  =      9550.08961182
  ---------------------------------------------------
  free energy    TOTEN  =      -619.88285545 eV

  energy without entropy =     -619.88145802  energy(sigma->0) =     -619.88215674
  exchange ACFDT corr.  =        -0.00161203  see jH, gK, PRB 81, 115126


--------------------------------------------------------------------------------------------------------




--------------------------------------- Iteration      1(   4)  ---------------------------------------


    POTLOK:  cpu time    2.3594: real time    2.3648
    SETDIJ:  cpu time    2.0220: real time    2.0240
    TRIAL :  cpu time  334.9521: real time  335.2901
    CORREC:  cpu time    0.0009: real time    0.0009
    CHARGE:  cpu time    1.3940: real time    1.3948
    --------------------------------------------
      LOOP:  cpu time  340.7303: real time  341.0798

 eigenvalue-minimisations  :     0
 total energy-change (2. order) :-0.1473536E+00  (-0.1051098E+00)
 number of electron     244.9999997 magnetization       2.9967739
 augmentation part       11.2716315 magnetization       1.8781541

 DIPCOR: dipole corrections for dipol
 direction  3 min pos     1,
 dipolmoment           0.000352     -0.000326     -0.027654 electrons x Angstroem
 Tr[quadrupol]     -6538.604101

 energy correction for charged system         0.000000 eV
 dipol+quadrupol energy correction            0.000022 eV
 added-field ion interaction          0.000000 eV  (added to PSCEN)


 Free energy of the ion-electron system (eV)
  ---------------------------------------------------
  alpha Z        PSCENC =       104.12341588
  Ewald energy   TEWEN  =     39078.20477830
  -Hartree energ DENC   =    -47266.72201796
  -exchange      EXHF   =       553.54100727
  -V(xc)+E(xc)   XCENC  =       599.97114835
  PAW double counting   =     26836.58315102   -26840.87242748
  entropy T*S    EENTRO =        -0.00076101
  eigenvalues    EBANDS =     -3234.94747881
  atomic energy  EATOM  =      9550.08961182
  ---------------------------------------------------
  free energy    TOTEN  =      -620.03020903 eV

  energy without entropy =     -620.02944802  energy(sigma->0) =     -620.02982853
  exchange ACFDT corr.  =        -0.00070228  see jH, gK, PRB 81, 115126


--------------------------------------------------------------------------------------------------------




--------------------------------------- Iteration      1(   5)  ---------------------------------------


    POTLOK:  cpu time    2.3681: real time    2.3701
    SETDIJ:  cpu time    2.0139: real time    2.0156
    TRIAL :  cpu time  334.9191: real time  335.2507
    CORREC:  cpu time    0.0009: real time    0.0009
    CHARGE:  cpu time    1.3980: real time    1.3991
    --------------------------------------------
      LOOP:  cpu time  340.7006: real time  341.0398

 eigenvalue-minimisations  :     0
 total energy-change (2. order) :-0.8202882E-01  (-0.6474064E-01)
 number of electron     244.9999997 magnetization       2.9982772
 augmentation part       11.2816910 magnetization       1.8898158

 DIPCOR: dipole corrections for dipol
 direction  3 min pos     1,
 dipolmoment           0.000602     -0.000558     -0.047362 electrons x Angstroem
 Tr[quadrupol]     -6538.688189

 energy correction for charged system         0.000000 eV
 dipol+quadrupol energy correction            0.000064 eV
 added-field ion interaction          0.000000 eV  (added to PSCEN)


 Free energy of the ion-electron system (eV)
  ---------------------------------------------------
  alpha Z        PSCENC =       104.12345815
  Ewald energy   TEWEN  =     39078.20477830
  -Hartree energ DENC   =    -47268.13276392
  -exchange      EXHF   =       553.74890842
  -V(xc)+E(xc)   XCENC  =       600.00954992
  PAW double counting   =     26934.31010416   -26938.71845904
  entropy T*S    EENTRO =        -0.00043566
  eigenvalues    EBANDS =     -3233.74666466
  atomic energy  EATOM  =      9550.08961182
  ---------------------------------------------------
  free energy    TOTEN  =      -620.11223785 eV

  energy without entropy =     -620.11180219  energy(sigma->0) =     -620.11202002
  exchange ACFDT corr.  =        -0.00035659  see jH, gK, PRB 81, 115126


--------------------------------------------------------------------------------------------------------




--------------------------------------- Iteration      1(   6)  ---------------------------------------


    POTLOK:  cpu time    2.3593: real time    2.3617
    SETDIJ:  cpu time    2.0172: real time    2.0183
    TRIAL :  cpu time  334.5812: real time  334.9113
    CORREC:  cpu time    0.0009: real time    0.0009
    CHARGE:  cpu time    1.3866: real time    1.3876
    --------------------------------------------
      LOOP:  cpu time  340.3460: real time  340.6834

 eigenvalue-minimisations  :     0
 total energy-change (2. order) :-0.5297038E-01  (-0.4343922E-01)
 number of electron     244.9999997 magnetization       2.9990066
 augmentation part       11.2866504 magnetization       1.8941060

 DIPCOR: dipole corrections for dipol
 direction  3 min pos     1,
 dipolmoment           0.000623     -0.000578     -0.049017 electrons x Angstroem
 Tr[quadrupol]     -6538.770867

 energy correction for charged system         0.000000 eV
 dipol+quadrupol energy correction            0.000069 eV
 added-field ion interaction          0.000000 eV  (added to PSCEN)


 Free energy of the ion-electron system (eV)
  ---------------------------------------------------
  alpha Z        PSCENC =       104.12346271
  Ewald energy   TEWEN  =     39078.20477830
  -Hartree energ DENC   =    -47272.62378207
  -exchange      EXHF   =       554.01033770
  -V(xc)+E(xc)   XCENC  =       600.14878013
  PAW double counting   =     26995.08413815   -26999.62598414
  entropy T*S    EENTRO =        -0.00026526
  eigenvalues    EBANDS =     -3229.57611518
  atomic energy  EATOM  =      9550.08961182
  ---------------------------------------------------
  free energy    TOTEN  =      -620.16520823 eV

  energy without entropy =     -620.16494296  energy(sigma->0) =     -620.16507560
  exchange ACFDT corr.  =        -0.00019289  see jH, gK, PRB 81, 115126


--------------------------------------------------------------------------------------------------------




--------------------------------------- Iteration      1(   7)  ---------------------------------------


    POTLOK:  cpu time    2.3530: real time    2.3563
    SETDIJ:  cpu time    2.0187: real time    2.0198
    TRIAL :  cpu time  334.3882: real time  335.3662
    CORREC:  cpu time    0.0011: real time    0.0010
    CHARGE:  cpu time    1.3911: real time    1.3921
    --------------------------------------------
      LOOP:  cpu time  340.1529: real time  341.1396

 eigenvalue-minimisations  :     0
 total energy-change (2. order) :-0.3666957E-01  (-0.2954844E-01)
 number of electron     244.9999997 magnetization       2.9993852
 augmentation part       11.2882301 magnetization       1.8952150

 DIPCOR: dipole corrections for dipol
 direction  3 min pos     1,
 dipolmoment           0.000614     -0.000569     -0.048278 electrons x Angstroem
 Tr[quadrupol]     -6538.824706

 energy correction for charged system         0.000000 eV
 dipol+quadrupol energy correction            0.000067 eV
 added-field ion interaction          0.000000 eV  (added to PSCEN)


 Free energy of the ion-electron system (eV)
  ---------------------------------------------------
  alpha Z        PSCENC =       104.12346065
  Ewald energy   TEWEN  =     39078.20477830
  -Hartree energ DENC   =    -47276.40926153
  -exchange      EXHF   =       554.22765285
  -V(xc)+E(xc)   XCENC  =       600.28225604
  PAW double counting   =     27028.69344403   -27033.26476820
  entropy T*S    EENTRO =        -0.00017123
  eigenvalues    EBANDS =     -3226.14878649
  atomic energy  EATOM  =      9550.08961182
  ---------------------------------------------------
  free energy    TOTEN  =      -620.20187780 eV

  energy without entropy =     -620.20170657  energy(sigma->0) =     -620.20179218
  exchange ACFDT corr.  =        -0.00011221  see jH, gK, PRB 81, 115126


--------------------------------------------------------------------------------------------------------




--------------------------------------- Iteration      1(   8)  ---------------------------------------


    POTLOK:  cpu time    2.3491: real time    2.3522
    SETDIJ:  cpu time    2.0229: real time    2.0239
    TRIAL :  cpu time  332.6725: real time  332.9950
    CORREC:  cpu time    0.0009: real time    0.0009
    CHARGE:  cpu time    1.3935: real time    1.3947
    --------------------------------------------
      LOOP:  cpu time  338.4399: real time  338.7705

 eigenvalue-minimisations  :     0
 total energy-change (2. order) :-0.2542338E-01  (-0.2059123E-01)
 number of electron     244.9999997 magnetization       2.9995941
 augmentation part       11.2905066 magnetization       1.8961210

 DIPCOR: dipole corrections for dipol
 direction  3 min pos     1,
 dipolmoment           0.000608     -0.000564     -0.047854 electrons x Angstroem
 Tr[quadrupol]     -6538.844633

 energy correction for charged system         0.000000 eV
 dipol+quadrupol energy correction            0.000065 eV
 added-field ion interaction          0.000000 eV  (added to PSCEN)


 Free energy of the ion-electron system (eV)
  ---------------------------------------------------
  alpha Z        PSCENC =       104.12345949
  Ewald energy   TEWEN  =     39078.20477830
  -Hartree energ DENC   =    -47278.37708819
  -exchange      EXHF   =       554.37348972
  -V(xc)+E(xc)   XCENC  =       600.37285431
  PAW double counting   =     27045.12836043   -27049.68548544
  entropy T*S    EENTRO =        -0.00011674
  eigenvalues    EBANDS =     -3224.45711039
  atomic energy  EATOM  =      9550.08961182
  ---------------------------------------------------
  free energy    TOTEN  =      -620.22730117 eV

  energy without entropy =     -620.22718444  energy(sigma->0) =     -620.22724280
  exchange ACFDT corr.  =        -0.00006982  see jH, gK, PRB 81, 115126


--------------------------------------------------------------------------------------------------------




--------------------------------------- Iteration      1(   9)  ---------------------------------------


    POTLOK:  cpu time    2.3427: real time    2.3446
    SETDIJ:  cpu time    2.0178: real time    2.0189
    TRIAL :  cpu time  332.4930: real time  332.7973
    CORREC:  cpu time    0.0009: real time    0.0009
    CHARGE:  cpu time    1.3917: real time    1.3934
    --------------------------------------------
      LOOP:  cpu time  338.2468: real time  338.5587

 eigenvalue-minimisations  :     0
 total energy-change (2. order) :-0.1827062E-01  (-0.1541348E-01)
 number of electron     244.9999997 magnetization       2.9997145
 augmentation part       11.2936040 magnetization       1.8973788

 DIPCOR: dipole corrections for dipol
 direction  3 min pos     1,
 dipolmoment           0.000600     -0.000556     -0.047174 electrons x Angstroem
 Tr[quadrupol]     -6538.841767

 energy correction for charged system         0.000000 eV
 dipol+quadrupol energy correction            0.000064 eV
 added-field ion interaction          0.000000 eV  (added to PSCEN)


 Free energy of the ion-electron system (eV)
  ---------------------------------------------------
  alpha Z        PSCENC =       104.12345764
  Ewald energy   TEWEN  =     39078.20477830
  -Hartree energ DENC   =    -47278.94453864
  -exchange      EXHF   =       554.46103601
  -V(xc)+E(xc)   XCENC  =       600.42503537
  PAW double counting   =     27052.29288563   -27056.86701462
  entropy T*S    EENTRO =        -0.00008411
  eigenvalues    EBANDS =     -3224.03070657
  atomic energy  EATOM  =      9550.08961182
  ---------------------------------------------------
  free energy    TOTEN  =      -620.24557179 eV

  energy without entropy =     -620.24548768  energy(sigma->0) =     -620.24552974
  exchange ACFDT corr.  =        -0.00004621  see jH, gK, PRB 81, 115126


--------------------------------------------------------------------------------------------------------




--------------------------------------- Iteration      1(  10)  ---------------------------------------


    POTLOK:  cpu time    2.3392: real time    2.3404
    SETDIJ:  cpu time    2.0176: real time    2.0194
    TRIAL :  cpu time  332.5564: real time  332.8522
    CORREC:  cpu time    0.0009: real time    0.0009
    CHARGE:  cpu time    1.3908: real time    1.3914
    --------------------------------------------
      LOOP:  cpu time  338.3060: real time  338.6078

 eigenvalue-minimisations  :     0
 total energy-change (2. order) :-0.1394796E-01  (-0.1189330E-01)
 number of electron     244.9999997 magnetization       2.9997863
 augmentation part       11.2962812 magnetization       1.8986644

 DIPCOR: dipole corrections for dipol
 direction  3 min pos     1,
 dipolmoment           0.000604     -0.000560     -0.047506 electrons x Angstroem
 Tr[quadrupol]     -6538.832009

 energy correction for charged system         0.000000 eV
 dipol+quadrupol energy correction            0.000065 eV
 added-field ion interaction          0.000000 eV  (added to PSCEN)


 Free energy of the ion-electron system (eV)
  ---------------------------------------------------
  alpha Z        PSCENC =       104.12345854
  Ewald energy   TEWEN  =     39078.20477830
  -Hartree energ DENC   =    -47278.79312265
  -exchange      EXHF   =       554.51042162
  -V(xc)+E(xc)   XCENC  =       600.45103385
  PAW double counting   =     27054.71014412   -27059.32667671
  entropy T*S    EENTRO =        -0.00006411
  eigenvalues    EBANDS =     -3224.22908453
  atomic energy  EATOM  =      9550.08961182
  ---------------------------------------------------
  free energy    TOTEN  =      -620.25951975 eV

  energy without entropy =     -620.25945564  energy(sigma->0) =     -620.25948770
  exchange ACFDT corr.  =        -0.00003252  see jH, gK, PRB 81, 115126


--------------------------------------------------------------------------------------------------------




--------------------------------------- Iteration      1(  11)  ---------------------------------------


    POTLOK:  cpu time    2.3319: real time    2.3343
    SETDIJ:  cpu time    2.0190: real time    2.0200
    TRIAL :  cpu time  332.2337: real time  332.5408
    CORREC:  cpu time    0.0009: real time    0.0009
    CHARGE:  cpu time    1.3880: real time    1.3892
    --------------------------------------------
      LOOP:  cpu time  337.9742: real time  338.2887

 eigenvalue-minimisations  :     0
 total energy-change (2. order) :-0.1088376E-01  (-0.9320045E-02)
 number of electron     244.9999997 magnetization       2.9998304
 augmentation part       11.2979629 magnetization       1.8996334

 DIPCOR: dipole corrections for dipol
 direction  3 min pos     1,
 dipolmoment           0.000623     -0.000578     -0.049016 electrons x Angstroem
 Tr[quadrupol]     -6538.824921

 energy correction for charged system         0.000000 eV
 dipol+quadrupol energy correction            0.000069 eV
 added-field ion interaction          0.000000 eV  (added to PSCEN)


 Free energy of the ion-electron system (eV)
  ---------------------------------------------------
  alpha Z        PSCENC =       104.12346271
  Ewald energy   TEWEN  =     39078.20477830
  -Hartree energ DENC   =    -47278.45710703
  -exchange      EXHF   =       554.54041812
  -V(xc)+E(xc)   XCENC  =       600.46387444
  PAW double counting   =     27054.83275144   -27059.48992110
  entropy T*S    EENTRO =        -0.00005153
  eigenvalues    EBANDS =     -3224.57820812
  atomic energy  EATOM  =      9550.08961182
  ---------------------------------------------------
  free energy    TOTEN  =      -620.27040351 eV

  energy without entropy =     -620.27035198  energy(sigma->0) =     -620.27037774
  exchange ACFDT corr.  =        -0.00002433  see jH, gK, PRB 81, 115126


--------------------------------------------------------------------------------------------------------




--------------------------------------- Iteration      1(  12)  ---------------------------------------


    POTLOK:  cpu time    2.3286: real time    2.3297
    SETDIJ:  cpu time    2.0195: real time    2.0209
    TRIAL :  cpu time  331.2931: real time  331.6184
    CORREC:  cpu time    0.0009: real time    0.0009
    CHARGE:  cpu time    1.4068: real time    1.4081
    --------------------------------------------
      LOOP:  cpu time  337.0497: real time  337.3814

 eigenvalue-minimisations  :     0
 total energy-change (2. order) :-0.8628985E-02  (-0.7467156E-02)
 number of electron     244.9999997 magnetization       2.9998585
 augmentation part       11.2988669 magnetization       1.9001531

 DIPCOR: dipole corrections for dipol
 direction  3 min pos     1,
 dipolmoment           0.000637     -0.000590     -0.050108 electrons x Angstroem
 Tr[quadrupol]     -6538.821056

 energy correction for charged system         0.000000 eV
 dipol+quadrupol energy correction            0.000072 eV
 added-field ion interaction          0.000000 eV  (added to PSCEN)


 Free energy of the ion-electron system (eV)
  ---------------------------------------------------
  alpha Z        PSCENC =       104.12346580
  Ewald energy   TEWEN  =     39078.20477830
  -Hartree energ DENC   =    -47278.18970231
  -exchange      EXHF   =       554.56420594
  -V(xc)+E(xc)   XCENC  =       600.47345710
  PAW double counting   =     27054.30268951   -27058.98755688
  entropy T*S    EENTRO =        -0.00004338
  eigenvalues    EBANDS =     -3224.85993025
  atomic energy  EATOM  =      9550.08961182
  ---------------------------------------------------
  free energy    TOTEN  =      -620.27903249 eV

  energy without entropy =     -620.27898911  energy(sigma->0) =     -620.27901080
  exchange ACFDT corr.  =        -0.00001928  see jH, gK, PRB 81, 115126


--------------------------------------------------------------------------------------------------------




--------------------------------------- Iteration      1(  13)  ---------------------------------------


    POTLOK:  cpu time    2.3257: real time    2.3273
    SETDIJ:  cpu time    2.0155: real time    2.0166
    TRIAL :  cpu time  331.1088: real time  331.4129
    CORREC:  cpu time    0.0009: real time    0.0009
    CHARGE:  cpu time    1.3887: real time    1.3901
    --------------------------------------------
      LOOP:  cpu time  336.8416: real time  337.1520

 eigenvalue-minimisations  :     0
 total energy-change (2. order) :-0.6992918E-02  (-0.6110130E-02)
 number of electron     244.9999997 magnetization       2.9998771
 augmentation part       11.2994158 magnetization       1.9002185

 DIPCOR: dipole corrections for dipol
 direction  3 min pos     1,
 dipolmoment           0.000632     -0.000585     -0.049675 electrons x Angstroem
 Tr[quadrupol]     -6538.817501

 energy correction for charged system         0.000000 eV
 dipol+quadrupol energy correction            0.000071 eV
 added-field ion interaction          0.000000 eV  (added to PSCEN)


 Free energy of the ion-electron system (eV)
  ---------------------------------------------------
  alpha Z        PSCENC =       104.12346457
  Ewald energy   TEWEN  =     39078.20477830
  -Hartree energ DENC   =    -47278.02515869
  -exchange      EXHF   =       554.58733283
  -V(xc)+E(xc)   XCENC  =       600.48392046
  PAW double counting   =     27053.95163911   -27058.65482506
  entropy T*S    EENTRO =        -0.00003791
  eigenvalues    EBANDS =     -3225.04674538
  atomic energy  EATOM  =      9550.08961182
  ---------------------------------------------------
  free energy    TOTEN  =      -620.28602541 eV

  energy without entropy =     -620.28598750  energy(sigma->0) =     -620.28600646
  exchange ACFDT corr.  =        -0.00001605  see jH, gK, PRB 81, 115126


--------------------------------------------------------------------------------------------------------




--------------------------------------- Iteration      1(  14)  ---------------------------------------


    POTLOK:  cpu time    2.3213: real time    2.3235
    SETDIJ:  cpu time    2.0123: real time    2.0134
    TRIAL :  cpu time  331.3796: real time  331.6803
    CORREC:  cpu time    0.0009: real time    0.0009
    CHARGE:  cpu time    1.3894: real time    1.3902
    --------------------------------------------
      LOOP:  cpu time  337.1045: real time  337.4117

 eigenvalue-minimisations  :     0
 total energy-change (2. order) :-0.5770264E-02  (-0.5075599E-02)
 number of electron     244.9999997 magnetization       2.9998900
 augmentation part       11.2998743 magnetization       1.8998936

 DIPCOR: dipole corrections for dipol
 direction  3 min pos     1,
 dipolmoment           0.000612     -0.000567     -0.048152 electrons x Angstroem
 Tr[quadrupol]     -6538.812645

 energy correction for charged system         0.000000 eV
 dipol+quadrupol energy correction            0.000066 eV
 added-field ion interaction          0.000000 eV  (added to PSCEN)


 Free energy of the ion-electron system (eV)
  ---------------------------------------------------
  alpha Z        PSCENC =       104.12346030
  Ewald energy   TEWEN  =     39078.20477830
  -Hartree energ DENC   =    -47277.90905027
  -exchange      EXHF   =       554.60996464
  -V(xc)+E(xc)   XCENC  =       600.49486350
  PAW double counting   =     27053.98276820   -27058.70054791
  entropy T*S    EENTRO =        -0.00003411
  eigenvalues    EBANDS =     -3225.18760636
  atomic energy  EATOM  =      9550.08961182
  ---------------------------------------------------
  free energy    TOTEN  =      -620.29179568 eV

  energy without entropy =     -620.29176157  energy(sigma->0) =     -620.29177862
  exchange ACFDT corr.  =        -0.00001391  see jH, gK, PRB 81, 115126


--------------------------------------------------------------------------------------------------------




--------------------------------------- Iteration      1(  15)  ---------------------------------------


    POTLOK:  cpu time    2.3183: real time    2.3198
    SETDIJ:  cpu time    2.0136: real time    2.0150
    TRIAL :  cpu time  331.3032: real time  331.6264
    CORREC:  cpu time    0.0008: real time    0.0008
    CHARGE:  cpu time    1.3916: real time    1.3923
    --------------------------------------------
      LOOP:  cpu time  337.0286: real time  337.3582

 eigenvalue-minimisations  :     0
 total energy-change (2. order) :-0.4822474E-02  (-0.4273130E-02)
 number of electron     244.9999997 magnetization       2.9998990
 augmentation part       11.3003374 magnetization       1.8992587

 DIPCOR: dipole corrections for dipol
 direction  3 min pos     1,
 dipolmoment           0.000592     -0.000548     -0.046541 electrons x Angstroem
 Tr[quadrupol]     -6538.806774

 energy correction for charged system         0.000000 eV
 dipol+quadrupol energy correction            0.000062 eV
 added-field ion interaction          0.000000 eV  (added to PSCEN)


 Free energy of the ion-electron system (eV)
  ---------------------------------------------------
  alpha Z        PSCENC =       104.12345594
  Ewald energy   TEWEN  =     39078.20477830
  -Hartree energ DENC   =    -47277.79061830
  -exchange      EXHF   =       554.63061395
  -V(xc)+E(xc)   XCENC  =       600.50455235
  PAW double counting   =     27054.32190952   -27059.05257583
  entropy T*S    EENTRO =        -0.00003139
  eigenvalues    EBANDS =     -3225.32831181
  atomic energy  EATOM  =      9550.08961182
  ---------------------------------------------------
  free energy    TOTEN  =      -620.29661815 eV

  energy without entropy =     -620.29658676  energy(sigma->0) =     -620.29660246
  exchange ACFDT corr.  =        -0.00001243  see jH, gK, PRB 81, 115126


--------------------------------------------------------------------------------------------------------




--------------------------------------- Iteration      1(  16)  ---------------------------------------


    POTLOK:  cpu time    2.3144: real time    2.3163
    SETDIJ:  cpu time    2.0154: real time    2.0166
    TRIAL :  cpu time  331.5184: real time  331.8697
    CORREC:  cpu time    0.0007: real time    0.0007
    CHARGE:  cpu time    1.3895: real time    1.3915
    --------------------------------------------
      LOOP:  cpu time  337.2405: real time  337.5997

 eigenvalue-minimisations  :     0
 total energy-change (2. order) :-0.4079392E-02  (-0.3640339E-02)
 number of electron     244.9999997 magnetization       2.9999056
 augmentation part       11.3008063 magnetization       1.8983931

 DIPCOR: dipole corrections for dipol
 direction  3 min pos     1,
 dipolmoment           0.000577     -0.000535     -0.045369 electrons x Angstroem
 Tr[quadrupol]     -6538.800650

 energy correction for charged system         0.000000 eV
 dipol+quadrupol energy correction            0.000059 eV
 added-field ion interaction          0.000000 eV  (added to PSCEN)


 Free energy of the ion-electron system (eV)
  ---------------------------------------------------
  alpha Z        PSCENC =       104.12345287
  Ewald energy   TEWEN  =     39078.20477830
  -Hartree energ DENC   =    -47277.65251033
  -exchange      EXHF   =       554.64854410
  -V(xc)+E(xc)   XCENC  =       600.51213698
  PAW double counting   =     27054.87585363   -27059.61787794
  entropy T*S    EENTRO =        -0.00002942
  eigenvalues    EBANDS =     -3225.48465559
  atomic energy  EATOM  =      9550.08961182
  ---------------------------------------------------
  free energy    TOTEN  =      -620.30069754 eV

  energy without entropy =     -620.30066813  energy(sigma->0) =     -620.30068283
  exchange ACFDT corr.  =        -0.00001138  see jH, gK, PRB 81, 115126


--------------------------------------------------------------------------------------------------------




--------------------------------------- Iteration      1(  17)  ---------------------------------------


    POTLOK:  cpu time    2.3134: real time    2.3156
    SETDIJ:  cpu time    2.0140: real time    2.0153
    TRIAL :  cpu time  332.2871: real time  332.9727
    CORREC:  cpu time    0.0009: real time    0.0009
    CHARGE:  cpu time    1.3932: real time    1.3943
    --------------------------------------------
      LOOP:  cpu time  338.0098: real time  338.7026

 eigenvalue-minimisations  :     0
 total energy-change (2. order) :-0.3487840E-02  (-0.3130548E-02)
 number of electron     244.9999997 magnetization       2.9999103
 augmentation part       11.3012519 magnetization       1.8973620

 DIPCOR: dipole corrections for dipol
 direction  3 min pos     1,
 dipolmoment           0.000566     -0.000525     -0.044520 electrons x Angstroem
 Tr[quadrupol]     -6538.794568

 energy correction for charged system         0.000000 eV
 dipol+quadrupol energy correction            0.000057 eV
 added-field ion interaction          0.000000 eV  (added to PSCEN)


 Free energy of the ion-electron system (eV)
  ---------------------------------------------------
  alpha Z        PSCENC =       104.12345068
  Ewald energy   TEWEN  =     39078.20477830
  -Hartree energ DENC   =    -47277.50048014
  -exchange      EXHF   =       554.66412113
  -V(xc)+E(xc)   XCENC  =       600.51794506
  PAW double counting   =     27055.54254000   -27060.29462289
  entropy T*S    EENTRO =        -0.00002798
  eigenvalues    EBANDS =     -3225.65149994
  atomic energy  EATOM  =      9550.08961182
  ---------------------------------------------------
  free energy    TOTEN  =      -620.30418538 eV

  energy without entropy =     -620.30415741  energy(sigma->0) =     -620.30417139
  exchange ACFDT corr.  =        -0.00001062  see jH, gK, PRB 81, 115126


--------------------------------------------------------------------------------------------------------




[...]
  Total     -45.68381   -46.59859     0.19098    -0.52514     0.15801    -0.46154
  in kB     -23.03947   -23.50082     0.09631    -0.26484     0.07969    -0.23277
  external pressure =      -15.48 kB  Pullay stress =        0.00 kB


 VOLUME and BASIS-vectors are now :
 -----------------------------------------------------------------------------
  energy-cutoff  :      500.00
  volume of cell :     3176.88
      direct lattice vectors                 reciprocal lattice vectors
    12.793100000  0.000000000  0.000000000     0.078167137  0.001409721  0.000977248
    -0.223777804 12.408182282  0.000000000     0.000000000  0.080591982 -0.000949678
    -0.254458661  0.235830993 20.013193073     0.000000000  0.000000000  0.049967039

  length of vectors
    12.793100000 12.410200000 20.016200000     0.078185955  0.080597577  0.049967039


 FORCES acting on ions:
    Electron-Ion                     Ewald-Force                    Non-Local-Force
 -----------------------------------------------------------------------------------------------
   0.335E+01 -.907E+01 0.389E+01   -.338E+01 0.899E+01 -.390E+01   0.107E+00 -.108E+00 0.182E-01
   -.243E+01 -.487E+01 0.207E+01   0.258E+01 0.479E+01 -.207E+01   -.178E+00 0.146E-01 0.271E-03
   0.551E+01 -.236E+01 0.263E+01   -.551E+01 0.230E+01 -.263E+01   -.675E-01 0.430E-01 -.497E-02
   0.110E+02 -.446E+01 0.640E+01   -.112E+02 0.444E+01 -.642E+01   0.279E+00 0.644E-01 0.209E-01
   0.316E+00 -.276E+01 0.591E+01   -.380E+00 0.272E+01 -.591E+01   0.666E-01 0.134E-01 0.908E-03
   0.282E+00 0.166E+01 0.540E+01   -.116E+00 -.197E+01 -.545E+01   -.139E+00 0.237E+00 0.493E-01
   0.219E+01 0.307E+01 0.249E+01   -.218E+01 -.312E+01 -.246E+01   -.189E-01 0.951E-01 -.311E-01
   0.945E+01 -.188E+00 0.145E+02   -.965E+01 0.104E+00 -.145E+02   0.208E+00 -.134E-01 0.108E-01
   0.421E+01 0.376E+02 0.152E+02   -.573E+01 -.403E+02 -.154E+02   0.146E+01 0.283E+01 0.260E+00
   0.135E+02 0.109E+02 0.446E+01   -.139E+02 -.109E+02 -.443E+01   0.275E+00 0.705E-01 -.389E-01
   0.649E+01 0.105E+02 0.799E+01   -.665E+01 -.109E+02 -.798E+01   0.202E+00 0.264E+00 -.172E-01
   0.300E+02 -.742E+01 0.308E+02   -.320E+02 0.100E+02 -.316E+02   0.195E+01 -.228E+01 0.670E+00
   0.147E+02 -.160E+01 0.600E+01   -.150E+02 0.184E+01 -.601E+01   0.304E+00 -.204E+00 0.132E-01
   0.184E+02 -.318E+01 0.106E+02   -.189E+02 0.362E+01 -.106E+02   0.496E+00 -.405E+00 0.486E-01
   0.277E+02 -.143E+02 0.324E+02   -.316E+02 0.144E+02 -.332E+02   0.351E+01 -.225E+00 0.737E+00
   0.148E+02 -.142E+02 0.940E+01   -.153E+02 0.146E+02 -.937E+01   0.441E+00 -.515E+00 -.351E-01
   0.522E+01 -.453E+01 0.338E+01   -.520E+01 0.469E+01 -.339E+01   -.139E-01 -.995E-01 0.116E-01
   0.117E+02 -.721E+01 0.585E+01   -.121E+02 0.710E+01 -.585E+01   0.342E+00 0.387E-01 0.245E-02
   0.663E+01 -.130E+02 0.503E+01   -.692E+01 0.136E+02 -.503E+01   0.176E+00 -.420E+00 0.502E-02
   -.324E+01 0.168E+01 0.784E+01   0.299E+01 -.177E+01 -.783E+01   0.196E+00 0.608E-01 -.164E-01
   0.310E+01 0.359E+01 0.848E+01   -.361E+01 -.392E+01 -.843E+01   0.400E+00 0.340E+00 -.494E-01
   0.316E+01 -.838E+01 0.773E+01   -.299E+01 0.840E+01 -.774E+01   -.103E+00 -.563E-01 0.721E-02
   -.528E+01 0.467E+01 0.106E+02   0.544E+01 -.519E+01 -.105E+02   -.107E+00 0.526E+00 -.323E-01
   0.311E+01 0.140E+02 0.190E+02   -.330E+01 -.147E+02 -.191E+02   0.224E+00 0.751E+00 0.402E-01
   0.323E+02 0.182E+02 0.300E+02   -.349E+02 -.214E+02 -.296E+02   0.256E+01 0.314E+01 -.420E+00
   0.102E+02 0.529E+01 0.185E+02   -.107E+02 -.573E+01 -.185E+02   0.405E+00 0.467E+00 -.346E-01
   -.121E+02 0.141E+02 0.226E+02   0.128E+02 -.154E+02 -.225E+02   -.708E+00 0.116E+01 -.105E+00
   -.105E+02 0.121E+02 0.476E+02   0.129E+02 -.161E+02 -.476E+02   -.236E+01 0.405E+01 0.472E-01
   -.131E+01 -.855E+01 0.117E+02   0.559E-01 0.110E+02 -.118E+02   0.105E+01 -.227E+01 0.482E-01
   0.629E+00 -.125E+02 0.703E+01   -.586E+00 0.128E+02 -.695E+01   0.857E-01 -.332E+00 -.852E-01
   -.209E+02 -.202E+02 0.169E+02   0.232E+02 0.236E+02 -.171E+02   -.201E+01 -.308E+01 0.245E+00
   -.598E+01 -.448E+01 0.702E+01   0.578E+01 0.466E+01 -.701E+01   0.174E+00 -.149E+00 -.525E-02
   -.337E+01 -.196E+01 0.324E+01   0.347E+01 0.191E+01 -.325E+01   -.931E-01 0.142E-01 0.807E-02
   -.651E+01 0.241E+01 0.765E+01   0.653E+01 -.255E+01 -.767E+01   -.784E-01 0.142E+00 0.130E-01
   -.460E+01 0.367E+01 0.451E+01   0.475E+01 -.371E+01 -.450E+01   -.157E+00 0.109E-01 -.608E-02
   -.126E+00 0.313E+01 0.265E+01   0.350E+00 -.326E+01 -.264E+01   -.176E+00 0.128E+00 -.910E-02
   -.732E+01 -.154E+00 0.389E+01   0.761E+01 0.129E+00 -.389E+01   -.290E+00 0.559E-01 -.528E-02
   -.155E+02 0.305E+01 0.124E+02   0.162E+02 -.320E+01 -.123E+02   -.723E+00 0.139E+00 -.694E-01
   -.780E+01 0.658E+01 0.697E+01   0.811E+01 -.688E+01 -.695E+01   -.303E+00 0.317E+00 -.258E-01
   -.306E+01 -.161E-01 0.440E+01   0.326E+01 -.401E-01 -.442E+01   -.203E+00 0.282E-01 0.108E-01
   -.570E+01 0.198E+01 0.478E+01   0.610E+01 -.184E+01 -.475E+01   -.413E+00 -.107E+00 -.292E-01
   -.300E+02 -.214E+02 0.126E+02   0.341E+02 0.223E+02 -.123E+02   -.411E+01 -.838E+00 -.253E+00
   -.121E+02 -.736E+01 0.111E+02   0.127E+02 0.740E+01 -.110E+02   -.541E+00 -.508E-01 -.145E-01
   0.357E+01 -.634E+01 0.253E+01   -.372E+01 0.663E+01 -.255E+01   0.185E+00 -.290E+00 0.129E-01
   0.831E+01 0.217E+01 0.135E+01   -.838E+01 -.191E+01 -.134E+01   0.104E+00 -.177E+00 -.165E-01
   -.212E+02 0.156E+02 0.520E+01   0.238E+02 -.156E+02 -.521E+01   -.273E+01 0.817E-01 0.147E-01
   0.101E+01 -.116E+02 0.332E+01   -.958E+00 0.120E+02 -.328E+01   -.149E-01 -.436E+00 -.509E-01
   0.489E+01 -.986E+00 0.223E+01   -.490E+01 0.872E+00 -.222E+01   -.416E-01 0.678E-01 -.120E-01
   0.296E+01 -.140E+01 0.295E+01   -.285E+01 0.116E+01 -.298E+01   -.132E+00 0.181E+00 0.293E-01
   -.969E+01 -.555E+00 0.480E+01   0.987E+01 0.664E+00 -.480E+01   -.196E+00 -.498E-01 0.368E-03
   -.757E+01 0.714E+01 0.332E+01   0.782E+01 -.730E+01 -.328E+01   -.194E+00 0.148E+00 -.356E-01
   0.333E+01 0.368E+01 0.285E+01   -.331E+01 -.372E+01 -.285E+01   -.113E-01 0.849E-01 -.115E-02
   -.742E+02 0.313E+02 0.345E+02   0.973E+02 -.304E+02 -.355E+02   -.217E+02 -.910E+00 0.838E+00
   0.634E+02 -.815E+02 0.986E+02   -.757E+02 0.101E+03 -.101E+03   0.117E+02 -.183E+02 0.273E+01
   0.359E+02 -.107E+03 0.469E+02   -.469E+02 0.127E+03 -.476E+02   0.103E+02 -.195E+02 0.700E+00
   -.579E+02 0.477E+02 0.479E+02   0.677E+02 -.637E+02 -.494E+02   -.903E+01 0.147E+02 0.138E+01
   0.329E+02 0.914E+02 0.138E+02   -.455E+02 -.112E+03 -.134E+02   0.119E+02 0.197E+02 -.322E+00
   -.295E+02 0.270E+02 -.795E+03   0.337E+02 -.285E+02 0.798E+03   -.503E+01 0.162E+01 -.161E+01
   -.324E+02 -.111E+01 0.561E+02   0.347E+02 0.155E+01 -.579E+02   -.133E+01 -.392E+00 -.120E+00
 -----------------------------------------------------------------------------------------------
   0.413E+01 -.139E+00 -.536E+01   -.853E-13 0.711E-14 0.995E-13   -.415E+01 0.296E+00 0.452E+01
 
 
 POSITION                                       TOTAL-FORCE (eV/Angst)
 -----------------------------------------------------------------------------------
      2.72319      0.16035     10.01035         0.081708     -0.194625      0.005881
      0.60121      1.39182     10.00553        -0.042208     -0.067103      0.001272
      1.29715      0.14589     10.01174        -0.068170     -0.010381      0.001450
      3.42515      1.41710      9.98970         0.103893      0.036901      0.003297
      2.73635      2.68480      9.99316        -0.002245     -0.024636     -0.000741
      0.58182      3.88781     10.00334         0.018906     -0.065501      0.000982
      1.30387      2.65277     10.00486        -0.007246      0.062131     -0.002143
      3.45237      3.95291      9.97971         0.028535     -0.107561      0.003085
      2.71582      5.22091     10.03298         0.011218      0.316924      0.028420
      0.47534      6.36378     10.02736        -0.040657      0.082805     -0.007758
      1.26578      5.15283     10.01975         0.051436     -0.038137      0.000326
      2.57502      7.62206     10.05843         0.070414      0.200198     -0.011547
      0.39140      8.82730     10.02702         0.064007      0.029521      0.000482
      1.14585      7.61250     10.03604        -0.002724      0.011536      0.013295
      3.24865      8.87225     10.05564        -0.232312     -0.104129     -0.027432
      2.51147     10.08784     10.03904         0.000151     -0.181958     -0.002237
      0.36620     11.30698     10.01597         0.005506      0.048315      0.002773
      1.08543     10.07148     10.02712         0.002172     -0.069401      0.001284
      3.20806     11.33520     10.02698        -0.095553      0.183187     -0.001933
      6.75700     12.50397      9.98064        -0.046439     -0.021527     -0.002304
      4.84251      1.37769      9.97097        -0.097435      0.035952     -0.002000
      5.56200      0.13244      9.98956         0.073699     -0.050382     -0.000136
      7.69869      1.31656      9.95339         0.048882      0.038266      0.001829
      6.98091      2.53634      9.91852         0.054230      0.066986      0.001543
      4.88965      3.88046      9.90613         0.113940      0.083654      0.005964
      5.55816      2.60337      9.92685        -0.023170      0.043837     -0.007023
      7.71400      3.73111      9.90179         0.006996     -0.028815     -0.002572
      7.00805      4.93002      9.85728        -0.146714      0.277955      0.063512
      6.76828     10.02707     10.02315        -0.141839      0.011981      0.012712
      4.63756     11.30515     10.02259         0.133996     -0.071475     -0.011022
      5.34180     10.07072     10.04146         0.150833      0.101940      0.024953
      7.46648     11.26751     10.00038        -0.016724      0.019235     -0.002618
     11.03265     12.52259      9.99778        -0.003337     -0.041430      0.001861
      9.12149      1.32924      9.96587        -0.065726      0.011851      0.001267
      9.60650     12.50289      9.98794        -0.015626     -0.024381      0.001588
     11.97002      1.36314      9.99702         0.042684      0.005886     -0.000536
     11.25824      2.59844      9.98508        -0.019954      0.029918     -0.004869
      9.11883      3.78217      9.93918        -0.047526     -0.007607     -0.003820
      9.83822      2.56516      9.96351        -0.008293      0.038484     -0.003672
     11.93954      3.85842      9.99218        -0.012856     -0.028027     -0.002464
     11.18467      5.08074      9.98849        -0.030925      0.037741     -0.004454
      8.96921      6.24757      9.95498        -0.213083     -0.014312     -0.006879
      9.76407      5.04758      9.95650         0.025420     -0.014984      0.004535
     11.83342      6.34438     10.01169         0.042004     -0.027973     -0.004456
     11.04470      7.56076     10.01441         0.045168      0.084101     -0.008525
      8.80846      8.77477     10.01402        -0.274115      0.048702     -0.001351
      9.58933      7.53673     10.00097         0.038028     -0.055961     -0.010727
     11.74809      8.80149     10.02025        -0.065218     -0.042188     -0.003964
     11.01317     10.02744     10.01263        -0.032624     -0.056600      0.000954
      8.89011     11.26569      9.99903        -0.038971      0.053441     -0.001176
      9.57408     10.00911     10.01022         0.039017     -0.001414     -0.002599
     11.72928     11.27978     10.00922         0.015218      0.053311      0.001355
      3.36379      6.46121     10.10052        -0.484146     -0.128255     -0.048954
      5.65252      5.01788      9.81808         0.440414     -0.402437      0.127783
      7.60821      6.14448      9.90187         0.203522     -0.550664      0.020744
      4.65148      8.85439     10.08664         0.018387     -0.089116      0.028939
      7.41055      8.79243     10.02850         0.317780      0.355044     -0.017551
      4.67511      7.32182     11.93226        -0.191999      0.033102      0.359581
      5.74433      7.12091     10.08015         0.219671      0.118079     -0.514205
 -----------------------------------------------------------------------------------
    total drift:                               -0.011693     -0.019458      0.010418


--------------------------------------------------------------------------------------------------------



  FREE ENERGIE OF THE ION-ELECTRON SYSTEM (eV)
  ---------------------------------------------------
  free  energy   TOTEN  =      -620.33275485 eV

  energy  without entropy=     -620.33272731  energy(sigma->0) =     -620.33274108
 


--------------------------------------------------------------------------------------------------------


    POTLOK:  cpu time    4.2890: real time    4.2925


--------------------------------------------------------------------------------------------------------


 stress matrix after NEB project (eV)
    -45.68381     -0.52502     -0.46154
     -0.52514    -46.59859      0.15967
     -0.46130      0.15801      0.19098
  FORCES: max atom, RMS     0.610122    0.206567
  FORCE total and by dimension    1.586674    0.550664
  Stress total and by dimension   65.264869   46.598589
 writing wavefunctions
     LOOP+:  cpu time21396.3213: real time21425.0458
    4ORBIT:  cpu time    0.0000: real time    0.0000
 


 total charge     
 
# of ion       s       p       d       tot
------------------------------------------
    1        0.864   1.766   0.000   2.631
    2        0.865   1.757   0.000   2.622
    3        0.864   1.773   0.000   2.637
    4        0.861   1.766   0.000   2.627
    5        0.859   1.730   0.000   2.588
    6        0.863   1.751   0.000   2.614
    7        0.860   1.761   0.000   2.621
    8        0.847   1.739   0.000   2.586
    9        0.848   1.670   0.000   2.518
   10        0.866   1.750   0.000   2.616
   11        0.856   1.748   0.000   2.604
   12        0.858   1.743   0.000   2.601
   13        0.863   1.767   0.000   2.630
   14        0.866   1.780   0.000   2.647
   15        0.858   1.752   0.000   2.610
   16        0.867   1.773   0.000   2.641
   17        0.865   1.760   0.000   2.625
   18        0.866   1.775   0.000   2.640
   19        0.865   1.777   0.000   2.642
   20        0.869   1.787   0.000   2.656
   21        0.868   1.769   0.000   2.637
   22        0.865   1.779   0.000   2.644
   23        0.870   1.794   0.000   2.664
   24        0.876   1.789   0.000   2.665
   25        0.857   1.715   0.000   2.572
   26        0.865   1.781   0.000   2.646
   27        0.880   1.849   0.000   2.729
   28        0.877   1.763   0.000   2.640
   29        0.859   1.743   0.000   2.603
   30        0.868   1.777   0.000   2.645
   31        0.857   1.748   0.000   2.604
   32        0.868   1.782   0.000   2.650
   33        0.866   1.762   0.000   2.629
   34        0.868   1.772   0.000   2.640
   35        0.865   1.780   0.000   2.645
   36        0.864   1.772   0.000   2.636
   37        0.869   1.768   0.000   2.636
   38        0.875   1.792   0.000   2.667
   39        0.869   1.790   0.000   2.658
   40        0.861   1.761   0.000   2.623
   41        0.869   1.765   0.000   2.634
   42        0.862   1.722   0.000   2.584
   43        0.865   1.787   0.000   2.652
   44        0.860   1.764   0.000   2.624
   45        0.858   1.733   0.000   2.590
   46        0.847   1.674   0.000   2.521
   47        0.849   1.751   0.000   2.601
   48        0.862   1.770   0.000   2.633
   49        0.862   1.746   0.000   2.608
   50        0.868   1.761   0.000   2.630
   51        0.859   1.756   0.000   2.615
   52        0.863   1.763   0.000   2.627
   53        1.228   2.607   0.000   3.834
   54        1.239   2.701   0.000   3.940
   55        1.240   2.713   0.000   3.953
   56        1.227   2.671   0.000   3.898
   57        1.230   2.613   0.000   3.844
   58        0.496   0.142   6.206   6.844
   59        0.468   0.667   2.557   3.693
--------------------------------------------------
tot         52.031 105.716   8.763 166.510
 


 magnetization (x)
 
# of ion       s       p       d       tot
------------------------------------------
    1        0.000   0.004   0.000   0.004
    2        0.000   0.001   0.000   0.001
    3       -0.000   0.000   0.000   0.000
    4       -0.000  -0.000   0.000  -0.001
    5        0.000   0.000   0.000   0.000
    6        0.000   0.002   0.000   0.002
    7       -0.000   0.000   0.000   0.000
    8        0.000   0.001   0.000   0.001
    9        0.000   0.006   0.000   0.007
   10        0.000   0.001   0.000   0.001
   11        0.000   0.001   0.000   0.002
   12        0.000   0.005   0.000   0.006
   13        0.000   0.004   0.000   0.004
   14       -0.000  -0.001   0.000  -0.001
   15       -0.000  -0.004   0.000  -0.004
   16        0.000   0.002   0.000   0.003
   17        0.000   0.001   0.000   0.001
   18       -0.000   0.000   0.000   0.000
   19       -0.000  -0.003   0.000  -0.003
   20        0.000   0.005   0.000   0.005
   21        0.000   0.001   0.000   0.001
   22       -0.000  -0.000   0.000  -0.000
   23        0.000   0.001   0.000   0.001
   24       -0.000  -0.001   0.000  -0.001
   25       -0.000  -0.000   0.000  -0.001
   26        0.000   0.002   0.000   0.002
   27        0.000   0.003   0.000   0.003
   28       -0.001  -0.006   0.000  -0.006
   29        0.000   0.002   0.000   0.003
   30        0.000   0.005   0.000   0.005
   31       -0.001  -0.008   0.000  -0.009
   32       -0.000   0.000   0.000   0.000
   33        0.000   0.001   0.000   0.002
   34       -0.000  -0.001   0.000  -0.001
   35        0.000   0.002   0.000   0.002
   36        0.000   0.001   0.000   0.001
   37       -0.000  -0.000   0.000  -0.000
   38       -0.000   0.000   0.000   0.000
   39        0.000   0.001   0.000   0.001
   40        0.000   0.001   0.000   0.001
   41        0.000   0.001   0.000   0.001
   42       -0.000  -0.000   0.000  -0.000
   43        0.000   0.003   0.000   0.003
   44       -0.000   0.000   0.000   0.000
   45        0.000   0.001   0.000   0.001
   46        0.000   0.001   0.000   0.001
   47        0.000   0.001   0.000   0.001
   48        0.000   0.001   0.000   0.001
   49        0.000   0.001   0.000   0.001
   50       -0.000  -0.002   0.000  -0.002
   51        0.000   0.002   0.000   0.002
   52       -0.000  -0.000   0.000  -0.000
   53        0.008   0.017   0.000   0.025
   54        0.002   0.016   0.000   0.018
   55        0.002   0.010   0.000   0.012
   56        0.008   0.055   0.000   0.064
   57        0.002   0.014   0.000   0.016
   58        0.175  -0.010   3.123   3.288
   59       -0.044  -0.021  -0.923  -0.988
--------------------------------------------------
tot          0.154   0.121   2.201   2.476
 

 total amount of memory used by VASP MPI-rank0   237416. kBytes
=======================================================================

   base      :      30000. kBytes
   nonl-proj :       7126. kBytes
   fftplans  :      18623. kBytes
   grid      :      49102. kBytes
   one-center:         93. kBytes
   HF        :         23. kBytes
   nonlr-proj:      29594. kBytes
   wavefun   :     102855. kBytes
 
  
  
 General timing and accounting informations for this job:
 ========================================================
  
                  Total CPU time used (sec):    21447.654
                            User time (sec):    21416.027
                          System time (sec):       31.627
                         Elapsed time (sec):    21482.929
  
                   Maximum memory used (kb):      490988.
                   Average memory used (kb):           0.
  
                          Minor page faults:      1030302
                          Major page faults:          214
                 Voluntary context switches:       251817
