 vasp.5.4.4.18Apr17-6-g9f103f2a35 (build Feb 25 2019 10:51:38) complex          
  
 executed on             LinuxIFC date 2021.03.10  03:51:10
 running on   80 total cores
 distrk:  each k-point on   40 cores,    2 groups
 distr:  one band on NCORES_PER_BAND=  40 cores,    1 groups


--------------------------------------------------------------------------------------------------------


 INCAR:
 POTCAR:    PAW_PBE C 08Apr2002                   
 POTCAR:    PAW_PBE N 08Apr2002                   
 POTCAR:    PAW_PBE Fe 06Sep2000                  
 POTCAR:    PAW_PBE Co 02Aug2007                  

 ----------------------------------------------------------------------------- 
|                                                                             |
|           W    W    AA    RRRRR   N    N  II  N    N   GGGG   !!!           |
|           W    W   A  A   R    R  NN   N  II  NN   N  G    G  !!!           |
|           W    W  A    A  R    R  N N  N  II  N N  N  G       !!!           |
|           W WW W  AAAAAA  RRRRR   N  N N  II  N  N N  G  GGG   !            |
|           WW  WW  A    A  R   R   N   NN  II  N   NN  G    G                |
|           W    W  A    A  R    R  N    N  II  N    N   GGGG   !!!           |
|                                                                             |
|      For optimal performance we recommend to set                            |
|        NCORE= 4 - approx SQRT( number of cores)                             |
|      NCORE specifies how many cores store one orbital (NPAR=cpu/NCORE).     |
|      This setting can  greatly improve the performance of VASP for DFT.     |
|      The default,   NCORE=1            might be grossly inefficient         |
|      on modern multi-core architectures or massively parallel machines.     |
|      Do your own testing !!!!                                               |
|      Unfortunately you need to use the default for GW and RPA calculations. |
|      (for HF NCORE is supported but not extensively tested yet)             |
|                                                                             |
 ----------------------------------------------------------------------------- 


 ----------------------------------------------------------------------------- 
|                                                                             |
|           W    W    AA    RRRRR   N    N  II  N    N   GGGG   !!!           |
|           W    W   A  A   R    R  NN   N  II  NN   N  G    G  !!!           |
|           W    W  A    A  R    R  N N  N  II  N N  N  G       !!!           |
|           W WW W  AAAAAA  RRRRR   N  N N  II  N  N N  G  GGG   !            |
|           WW  WW  A    A  R   R   N   NN  II  N   NN  G    G                |
|           W    W  A    A  R    R  N    N  II  N    N   GGGG   !!!           |
|                                                                             |
|      You have enabled k-point parallelism (KPAR>1).                         |
|      This developmental code was originally  written by Paul Kent at ORNL,  |
|      and carefully double checked in Vienna.                                |
|      GW as well as linear response parallelism added by Martijn Marsman     |
|      and Georg Kresse.                                                      |
|      Carefully verify results versus KPAR=1.                                |
|      Report problems to Paul Kent and Vienna.                               |
|                                                                             |
 ----------------------------------------------------------------------------- 

 POTCAR:    PAW_PBE C 08Apr2002                   
   VRHFIN =C: s2p2                                                              
   LEXCH  = PE                                                                  
   EATOM  =   147.1560 eV,   10.8157 Ry                                         
                                                                                
   TITEL  = PAW_PBE C 08Apr2002                                                 
   LULTRA =        F    use ultrasoft PP ?                                      
   IUNSCR =        1    unscreen: 0-lin 1-nonlin 2-no                           
   RPACOR =    1.200    partial core radius                                     
   POMASS =   12.011; ZVAL   =    4.000    mass and valenz                      
   RCORE  =    1.500    outmost cutoff radius                                   
   RWIGS  =    1.630; RWIGS  =    0.863    wigner-seitz radius (au A)           
   ENMAX  =  400.000; ENMIN  =  300.000 eV                                      
   ICORE  =        2    local potential                                         
   LCOR   =        T    correct aug charges                                     
   LPAW   =        T    paw PP                                                  
   EAUG   =  644.873                                                            
   DEXC   =    0.000                                                            
   RMAX   =    1.529    core radius for proj-oper                               
   RAUG   =    1.300    factor for augmentation sphere                          
   RDEP   =    1.501    radius for radial grids                                 
   RDEPT  =    1.300    core radius for aug-charge                              
                                                                                
   Atomic configuration                                                         
    4 entries                                                                   
     n  l   j            E        occ.                                          
     1  0  0.50      -273.3789   2.0000                                         
     2  0  0.50       -13.7508   2.0000                                         
     2  1  0.50        -5.2854   2.0000                                         
     3  2  1.50        -5.4423   0.0000                                         
   Description                                                                  
     l       E           TYP  RCUT    TYP  RCUT                                 
     0    -13.7508458     23  1.200                                             
     0     -8.2022199     23  1.200                                             
     1     -5.2854383     23  1.500                                             
     1     34.0145650     23  1.500                                             
     2     -5.4423304      7  1.500                                             
  local pseudopotential read in
  partial core-charges read in
  partial kinetic energy density read in
  atomic valenz-charges read in
  non local Contribution for L=           0  read in
    real space projection operators read in
  non local Contribution for L=           0  read in
    real space projection operators read in
  non local Contribution for L=           1  read in
    real space projection operators read in
  non local Contribution for L=           1  read in
    real space projection operators read in
    PAW grid and wavefunctions read in
 
   number of l-projection  operators is LMAX  =           4
   number of lm-projection operators is LMMAX =           8
 
 POTCAR:    PAW_PBE N 08Apr2002                   
   VRHFIN =N: s2p3                                                              
   LEXCH  = PE                                                                  
   EATOM  =   264.5486 eV,   19.4438 Ry                                         
                                                                                
   TITEL  = PAW_PBE N 08Apr2002                                                 
   LULTRA =        F    use ultrasoft PP ?                                      
   IUNSCR =        1    unscreen: 0-lin 1-nonlin 2-no                           
   RPACOR =    1.200    partial core radius                                     
   POMASS =   14.001; ZVAL   =    5.000    mass and valenz                      
   RCORE  =    1.500    outmost cutoff radius                                   
   RWIGS  =    1.400; RWIGS  =    0.741    wigner-seitz radius (au A)           
   ENMAX  =  400.000; ENMIN  =  300.000 eV                                      
   ICORE  =        2    local potential                                         
   LCOR   =        T    correct aug charges                                     
   LPAW   =        T    paw PP                                                  
   EAUG   =  627.112                                                            
   DEXC   =    0.000                                                            
   RMAX   =    1.529    core radius for proj-oper                               
   RAUG   =    1.300    factor for augmentation sphere                          
   RDEP   =    1.514    radius for radial grids                                 
   RDEPT  =    1.338    core radius for aug-charge                              
                                                                                
   Atomic configuration                                                         
    4 entries                                                                   
     n  l   j            E        occ.                                          
     1  0  0.50      -384.7179   2.0000                                         
     2  0  0.50       -18.5828   2.0000                                         
     2  1  0.50        -7.0898   3.0000                                         
     3  2  1.50        -6.8029   0.0000                                         
   Description                                                                  
     l       E           TYP  RCUT    TYP  RCUT                                 
     0    -18.5828119     23  1.200                                             
     0    -13.5018863     23  1.200                                             
     1     -7.0897853     23  1.500                                             
     1      9.5240782     23  1.500                                             
     2     -6.8029130      7  1.500                                             
  local pseudopotential read in
  partial core-charges read in
  partial kinetic energy density read in
  atomic valenz-charges read in
  non local Contribution for L=           0  read in
    real space projection operators read in
  non local Contribution for L=           0  read in
    real space projection operators read in
  non local Contribution for L=           1  read in
    real space projection operators read in
  non local Contribution for L=           1  read in
    real space projection operators read in
    PAW grid and wavefunctions read in
 
   number of l-projection  operators is LMAX  =           4
   number of lm-projection operators is LMMAX =           8
 
 POTCAR:    PAW_PBE Fe 06Sep2000                  
   VRHFIN =Fe:  d7 s1                                                           
   LEXCH  = PE                                                                  
   EATOM  =   594.3153 eV,   43.6809 Ry                                         
                                                                                
   TITEL  = PAW_PBE Fe 06Sep2000                                                
   LULTRA =        F    use ultrasoft PP ?                                      
   IUNSCR =        1    unscreen: 0-lin 1-nonlin 2-no                           
   RPACOR =    2.000    partial core radius                                     
   POMASS =   55.847; ZVAL   =    8.000    mass and valenz                      
   RCORE  =    2.300    outmost cutoff radius                                   
   RWIGS  =    2.460; RWIGS  =    1.302    wigner-seitz radius (au A)           
   ENMAX  =  267.882; ENMIN  =  200.911 eV                                      
   RCLOC  =    1.701    cutoff for local pot                                    
   LCOR   =        T    correct aug charges                                     
   LPAW   =        T    paw PP                                                  
   EAUG   =  511.368                                                            
   DEXC   =    0.000                                                            
   RMAX   =    2.356    core radius for proj-oper                               
   RAUG   =    1.300    factor for augmentation sphere                          
   RDEP   =    2.442    radius for radial grids                                 
   RDEPT  =    1.890    core radius for aug-charge                              
                                                                                
   Atomic configuration                                                         
    9 entries                                                                   
     n  l   j            E        occ.                                          
     1  0  0.50     -6993.8440   2.0000                                         
     2  0  0.50      -814.6047   2.0000                                         
     2  1  1.50      -693.3689   6.0000                                         
     3  0  0.50       -89.4732   2.0000                                         
     3  1  1.50       -55.6373   6.0000                                         
     3  2  2.50        -3.8151   7.0000                                         
     4  0  0.50        -4.2551   1.0000                                         
     4  1  1.50        -3.4015   0.0000                                         
     4  3  2.50        -1.3606   0.0000                                         
   Description                                                                  
     l       E           TYP  RCUT    TYP  RCUT                                 
     2     -3.8151135     23  2.300                                             
     2     -5.1756961     23  2.300                                             
     0     -4.2550963     23  2.300                                             
     0      7.2035603     23  2.300                                             
     1     -2.7211652     23  2.300                                             
     1     18.4316424     23  2.300                                             
  local pseudopotential read in
  partial core-charges read in
  partial kinetic energy density read in
  atomic valenz-charges read in
  non local Contribution for L=           2  read in
    real space projection operators read in
  non local Contribution for L=           2  read in
    real space projection operators read in
  non local Contribution for L=           0  read in
    real space projection operators read in
  non local Contribution for L=           0  read in
    real space projection operators read in
  non local Contribution for L=           1  read in
    real space projection operators read in
  non local Contribution for L=           1  read in
    real space projection operators read in
    PAW grid and wavefunctions read in
 
   number of l-projection  operators is LMAX  =           6
   number of lm-projection operators is LMMAX =          18
 
 POTCAR:    PAW_PBE Co 02Aug2007                  
   VRHFIN =Co: d8 s1                                                            
   LEXCH  = PE                                                                  
   EATOM  =   813.3670 eV,   59.7808 Ry                                         
                                                                                
   TITEL  = PAW_PBE Co 02Aug2007                                                
   LULTRA =        F    use ultrasoft PP ?                                      
   IUNSCR =        1    unscreen: 0-lin 1-nonlin 2-no                           
   RPACOR =    2.000    partial core radius                                     
   POMASS =   58.933; ZVAL   =    9.000    mass and valenz                      
   RCORE  =    2.300    outmost cutoff radius                                   
   RWIGS  =    2.460; RWIGS  =    1.302    wigner-seitz radius (au A)           
   ENMAX  =  267.968; ENMIN  =  200.976 eV                                      
   RCLOC  =    1.203    cutoff for local pot                                    
   LCOR   =        T    correct aug charges                                     
   LPAW   =        T    paw PP                                                  
   EAUG   =  477.818                                                            
   DEXC   =    0.000                                                            
   RMAX   =    2.360    core radius for proj-oper                               
   RAUG   =    1.300    factor for augmentation sphere                          
   RDEP   =    2.393    radius for radial grids                                 
   RDEPT  =    1.864    core radius for aug-charge                              
                                                                                
   Atomic configuration                                                         
    9 entries                                                                   
     n  l   j            E        occ.                                          
     1  0  0.50     -7587.6674   2.0000                                         
     2  0  0.50      -893.6084   2.0000                                         
     2  1  1.50      -764.5805   6.0000                                         
     3  0  0.50       -97.5973   2.0000                                         
     3  1  1.50       -60.9648   6.0000                                         
     3  2  2.50        -4.2382   8.0000                                         
     4  0  0.50        -4.3746   1.0000                                         
     4  1  1.50        -4.0817   0.0000                                         
     4  3  2.50        -1.3606   0.0000                                         
   Description                                                                  
     l       E           TYP  RCUT    TYP  RCUT                                 
     2     -4.2382362     23  2.300                                             
     2     -5.5988188     23  2.300                                             
     0     -4.3745797     23  2.300                                             
     0      5.7660125     23  2.300                                             
     1     -2.7211652     23  2.300                                             
     1     16.9860234     23  2.300                                             
  local pseudopotential read in
  partial core-charges read in
  partial kinetic energy density read in
  atomic valenz-charges read in
  non local Contribution for L=           2  read in
    real space projection operators read in
  non local Contribution for L=           2  read in
    real space projection operators read in
  non local Contribution for L=           0  read in
    real space projection operators read in
  non local Contribution for L=           0  read in
    real space projection operators read in
  non local Contribution for L=           1  read in
    real space projection operators read in
  non local Contribution for L=           1  read in
    real space projection operators read in
    PAW grid and wavefunctions read in
 
   number of l-projection  operators is LMAX  =           6
   number of lm-projection operators is LMMAX =          18
 

 ----------------------------------------------------------------------------- 
|                                                                             |
|  ADVICE TO THIS USER RUNNING 'VASP/VAMP'   (HEAR YOUR MASTER'S VOICE ...):  |
|                                                                             |
|      You have a (more or less) 'large supercell' and for larger cells       |
|      it might be more efficient to use real space projection opertators     |
|      So try LREAL= Auto  in the INCAR   file.                               |
|      Mind:          For very  accurate calculation you might also keep the  |
|      reciprocal projection scheme          (i.e. LREAL=.FALSE.)             |
|                                                                             |
 ----------------------------------------------------------------------------- 

  PAW_PBE C 08Apr2002                   :
 energy of atom  1       EATOM= -147.1560
 kinetic energy error for atom=    0.0076 (will be added to EATOM!!)
  PAW_PBE N 08Apr2002                   :
 energy of atom  2       EATOM= -264.5486
 kinetic energy error for atom=    0.0138 (will be added to EATOM!!)
  PAW_PBE Fe 06Sep2000                  :
 energy of atom  3       EATOM= -594.3153
 kinetic energy error for atom=    0.0026 (will be added to EATOM!!)
  PAW_PBE Co 02Aug2007                  :
 energy of atom  4       EATOM= -813.3670
 kinetic energy error for atom=    0.0028 (will be added to EATOM!!)
 
 
 POSCAR:  C  N Fe Co                             
  positions in cartesian coordinates
  No initial velocities read in
 exchange correlation table for  LEXCH =        8
   RHO(1)=    0.500       N(1)  =     2000
   RHO(2)=  100.500       N(2)  =     4000

 VTST: version 3.2, (02/03/18)

 CHAIN: initializing optimizer
 
 OPT: Using VASP Conjugate-Gradient optimizer
 CHAIN: Read ICHAIN            0
 
 POSCAR:  C  N Fe Co                             
  positions in cartesian coordinates
  No initial velocities read in
 


--------------------------------------------------------------------------------------------------------


 ion  position               nearest neighbor table
   1  0.223  0.003  0.498-  19 1.43   4 1.43   3 1.43
   2  0.058  0.102  0.497-   3 1.42   7 1.44  38 1.44
   3  0.112  0.002  0.497-   2 1.42  17 1.43   1 1.43
   4  0.280  0.104  0.500-  21 1.43   1 1.43   5 1.44
   5  0.227  0.206  0.500-   7 1.44   4 1.44   8 1.45
   6  0.059  0.302  0.498-   7 1.43  11 1.43  42 1.43
   7  0.115  0.203  0.498-   6 1.43   2 1.44   5 1.44
   8  0.284  0.309  0.501-  25 1.45   5 1.45   9 1.45
   9  0.226  0.409  0.501-  55 1.38  11 1.44   8 1.45
  10  0.056  0.501  0.497-  14 1.42  46 1.42  11 1.43
  11  0.115  0.403  0.498-   6 1.43  10 1.43   9 1.44
  12  0.218  0.603  0.498-  55 1.38  14 1.40  15 1.42
  13  0.053  0.702  0.495-  18 1.41  50 1.42  14 1.42
  14  0.109  0.603  0.496-  12 1.40  10 1.42  13 1.42
  15  0.273  0.704  0.499-  58 1.38  16 1.41  12 1.42
  16  0.219  0.803  0.497-  15 1.41  19 1.42  18 1.42
  17  0.054  0.902  0.496-  18 1.42   3 1.43  54 1.43
  18  0.109  0.802  0.496-  13 1.41  17 1.42  16 1.42
  19  0.277  0.902  0.499-  16 1.42  32 1.43   1 1.43
  20  0.555  0.995  0.500-  22 1.43  23 1.43  34 1.44
  21  0.391  0.101  0.500-   4 1.43  26 1.43  22 1.45
  22  0.445  0.998  0.500-  20 1.43  32 1.43  21 1.45
  23  0.612  0.096  0.499-  24 1.43  20 1.43  36 1.43
  24  0.558  0.197  0.499-  27 1.42  26 1.43  23 1.43
  25  0.396  0.305  0.502-  56 1.38   8 1.45  26 1.45
  26  0.448  0.201  0.500-  24 1.43  21 1.43  25 1.45
  27  0.616  0.296  0.498-  28 1.41  24 1.42  40 1.42
  28  0.562  0.395  0.500-  56 1.38  27 1.41  29 1.42
  29  0.618  0.495  0.500-  57 1.38  44 1.40  28 1.42
  30  0.609  0.690  0.501-  57 1.38  48 1.44  31 1.45
  31  0.551  0.791  0.501-  33 1.45  34 1.45  30 1.45
  32  0.388  0.898  0.500-  19 1.43  22 1.43  33 1.45
  33  0.439  0.794  0.502-  58 1.38  31 1.45  32 1.45
  34  0.608  0.893  0.500-  52 1.44  20 1.44  31 1.45
  35  0.889  0.999  0.496-  54 1.42  38 1.43  37 1.44
  36  0.723  0.097  0.498-  37 1.42  41 1.43  23 1.43
  37  0.777  0.997  0.497-  36 1.42  52 1.44  35 1.44
  38  0.946  0.099  0.497-  39 1.42  35 1.43   2 1.44
  39  0.892  0.199  0.497-  38 1.42  42 1.43  41 1.43
  40  0.726  0.296  0.497-  45 1.41  41 1.42  27 1.42
  41  0.781  0.197  0.497-  40 1.42  36 1.43  39 1.43
  42  0.948  0.300  0.497-  43 1.42  39 1.43   6 1.43
  43  0.892  0.398  0.496-  46 1.42  45 1.42  42 1.42
  44  0.726  0.496  0.497-  29 1.40  49 1.42  45 1.42
  45  0.782  0.396  0.497-  40 1.41  43 1.42  44 1.42
  46  0.946  0.499  0.496-  43 1.42  10 1.42  47 1.43
  47  0.889  0.599  0.496-  50 1.42  49 1.42  46 1.43
  48  0.721  0.695  0.498-  53 1.43  49 1.43  30 1.44
  49  0.779  0.597  0.497-  44 1.42  47 1.42  48 1.43
  50  0.943  0.700  0.495-  47 1.42  13 1.42  51 1.42
  51  0.887  0.799  0.496-  50 1.42  54 1.43  53 1.43
  52  0.720  0.896  0.498-  53 1.43  37 1.44  34 1.44
  53  0.776  0.797  0.497-  52 1.43  48 1.43  51 1.43
  54  0.944  0.900  0.496-  35 1.42  51 1.43  17 1.43
  55  0.276  0.510  0.502-  12 1.38   9 1.38  59 1.90
  56  0.456  0.401  0.504-  28 1.38  25 1.38  59 1.92
  57  0.560  0.589  0.503-  29 1.38  30 1.38  59 1.90
  58  0.380  0.699  0.503-  15 1.38  33 1.38  59 1.92
  59  0.418  0.551  0.514-  55 1.90  57 1.90  58 1.92  56 1.92  60 2.15
  60  0.420  0.561  0.622-  59 2.15
 
  LATTYP: Found a triclinic cell.
 ALAT       =    12.2966000000
 B/A-ratio  =     1.4377908688
 C/A-ratio  =     2.2141298814
 COS(alpha) =     0.0101942360
 COS(beta)  =     0.5001088667
 COS(gamma) =     0.6846169898
  
  Lattice vectors:
  
 A1 = (  -0.1837689738,  12.2952267374,   0.0000000000)
 A2 = (  12.7046310262,  12.2952267374,   0.0000000000)
 A3 = ( -12.6101482908,  13.4291436692, -20.0477432967)


Analysis of symmetry for initial positions (statically):
=====================================================================
 Subroutine PRICEL returns:
 Original cell was already a primitive cell.
 

 Routine SETGRP: Setting up the symmetry group for a 
 triclinic supercell.


 Subroutine GETGRP returns: Found  1 space group operations
 (whereof  1 operations were pure point group operations)
 out of a pool of  2 trial point group operations.


The static configuration has the point symmetry C_1 .


Analysis of symmetry for dynamics (positions and initial velocities):
=====================================================================
 Subroutine PRICEL returns:
 Original cell was already a primitive cell.
 

 Routine SETGRP: Setting up the symmetry group for a 
 triclinic supercell.


 Subroutine GETGRP returns: Found  1 space group operations
 (whereof  1 operations were pure point group operations)
 out of a pool of  2 trial point group operations.


The dynamic configuration has the point symmetry C_1 .


Analysis of structural, dynamic, and magnetic symmetry:
=====================================================================
 Subroutine PRICEL returns:
 Original cell was already a primitive cell.
 

 Routine SETGRP: Setting up the symmetry group for a 
 triclinic supercell.


 Subroutine GETGRP returns: Found  1 space group operations
 (whereof  1 operations were pure point group operations)
 out of a pool of  2 trial point group operations.


The magnetic configuration has the point symmetry C_1 .


 Subroutine INISYM returns: Found  1 space group operations
 (whereof  1 operations are pure point group operations),
 and found     1 'primitive' translations

 
 
 KPOINTS: KPOINTS created by Atomic Simulation Env

Automatic generation of k-mesh.
Space group operators:
 irot       det(A)        alpha          n_x          n_y          n_z        tau_x        tau_y        tau_z
    1     1.000000     0.000000     1.000000     0.000000     0.000000     0.000000     0.000000     0.000000
 
 Subroutine IBZKPT returns following result:
 ===========================================
 
 Found      2 irreducible k-points:
 
 Following reciprocal coordinates:
            Coordinates               Weight
  0.250000  0.250000  0.000000      2.000000
 -0.250000  0.250000 -0.000000      2.000000
 
 Following cartesian coordinates:
            Coordinates               Weight
  0.019397  0.020623  0.001613      2.000000
 -0.019397  0.020043  0.000687      2.000000
 
 
 Subroutine IBZKPT_HF returns following result:
 ==============================================
 
 Found      4 k-points in 1st BZ
 the following      4 k-points will be used (e.g. in the exchange kernel)
 Following reciprocal coordinates:   # in IRBZ
  0.250000  0.250000  0.000000    0.25000000   1 t-inv F
 -0.250000  0.250000 -0.000000    0.25000000   2 t-inv F
 -0.250000 -0.250000  0.000000    0.25000000   1 t-inv T
  0.250000 -0.250000  0.000000    0.25000000   2 t-inv T


--------------------------------------------------------------------------------------------------------




 Dimension of arrays:
   k-points           NKPTS =      2   k-points in BZ     NKDIM =      4   number of bands    NBANDS=    159
   number of dos      NEDOS =    301   number of ions     NIONS =     60
   non local maximal  LDIM  =      6   non local SUM 2l+1 LMDIM =     18
   total plane-waves  NPLWV = ******
   max r-space proj   IRMAX =      1   max aug-charges    IRDMAX=  16287
   dimension x,y,z NGX =    96 NGY =   90 NGZ =  150
   dimension x,y,z NGXF=   192 NGYF=  180 NGZF=  300
   support grid    NGXF=   192 NGYF=  180 NGZF=  300
   ions per type =              54   4   1   1
   NGX,Y,Z   is equivalent  to a cutoff of  12.38, 12.17, 12.42 a.u.
   NGXF,Y,Z  is equivalent  to a cutoff of  24.77, 24.34, 24.83 a.u.

 SYSTEM =  unknown system                          
 POSCAR =   C  N Fe Co                             

 Startparameter for this run:
   NWRITE =      2    write-flag & timer
   PREC   = accura    normal or accurate (medium, high low for compatibility)
   ISTART =      1    job   : 0-new  1-cont  2-samecut
   ICHARG =      0    charge: 1-file 2-atom 10-const
   ISPIN  =      2    spin polarized calculation?
   LNONCOLLINEAR =      F non collinear calculations
   LSORBIT =      F    spin-orbit coupling
   INIWAV =      1    electr: 0-lowe 1-rand  2-diag
   LASPH  =      T    aspherical Exc in radial PAW
   METAGGA=      F    non-selfconsistent MetaGGA calc.

 Electronic Relaxation 1
   ENCUT  =  500.0 eV  36.75 Ry    6.06 a.u.  23.50 22.42 36.62*2*pi/ulx,y,z
   ENINI  =  500.0     initial cutoff
   ENAUG  =  644.9 eV  augmentation charge cutoff
   NELM   =    250;   NELMIN=  2; NELMDL=  0     # of ELM steps 
   EDIFF  = 0.1E-03   stopping-criterion for ELM
   LREAL  =      F    real-space projection
   NLSPLINE    = F    spline interpolate recip. space projectors
   LCOMPAT=      F    compatible to vasp.4.4
   GGA_COMPAT  = T    GGA compatible to vasp.4.4-vasp.4.6
   LMAXPAW     = -100 max onsite density
   LMAXMIX     =    2 max onsite mixed and CHGCAR
   VOSKOWN=      0    Vosko Wilk Nusair interpolation
   ROPT   =    0.00000   0.00000   0.00000   0.00000
 Ionic relaxation
   EDIFFG = -.3E-01   stopping-criterion for IOM
   NSW    =      0    number of steps for IOM
   NBLOCK =      1;   KBLOCK =      1    inner block; outer block 
   IBRION =     -1    ionic relax: 0-MD 1-quasi-New 2-CG
   NFREE  =      1    steps in history (QN), initial steepest desc. (CG)
   ISIF   =      2    stress and relaxation
   IWAVPR =     10    prediction:  0-non 1-charg 2-wave 3-comb
   ISYM   =      3    0-nonsym 1-usesym 2-fastsym
   LCORR  =      T    Harris-Foulkes like correction to forces

   POTIM  = 0.5000    time-step for ionic-motion
   TEIN   =    0.0    initial temperature
   TEBEG  =    0.0;   TEEND  =   0.0 temperature during run
   SMASS  =  -3.00    Nose mass-parameter (am)
   estimated Nose-frequenzy (Omega)   =  0.10E-29 period in steps =****** mass=  -0.380E-26a.u.
   SCALEE = 1.0000    scale energy and forces
   NPACO  =    256;   APACO  = 16.0  distance and # of slots for P.C.
   PSTRESS=    0.0 pullay stress

  Mass of Ions in am
   POMASS =  12.01 14.00 55.85 58.93
  Ionic Valenz
   ZVAL   =   4.00  5.00  8.00  9.00
  Atomic Wigner-Seitz radii
   RWIGS  =  -1.00 -1.00 -1.00 -1.00
  virtual crystal weights 
   VCA    =   1.00  1.00  1.00  1.00
   NELECT =     253.0000    total number of electrons
   NUPDOWN=      -1.0000    fix difference up-down

 DOS related values:
   EMIN   =  10.00;   EMAX   =-10.00  energy-range for DOS
   EFERMI =   0.00
   ISMEAR =     0;   SIGMA  =   0.10  broadening in eV -4-tet -1-fermi 0-gaus

 Electronic relaxation 2 (details)
   IALGO  =     53    algorithm
   LDIAG  =      T    sub-space diagonalisation (order eigenvalues)
   LSUBROT=      F    optimize rotation matrix (better conditioning)
   TURBO    =      0    0=normal 1=particle mesh
   IRESTART =      0    0=no restart 2=restart with 2 vectors
   NREBOOT  =      0    no. of reboots
   NMIN     =      0    reboot dimension
   EREF     =   0.00    reference energy to select bands
   IMIX   =      4    mixing-type and parameters
     AMIX     =   0.40;   BMIX     =  1.00
     AMIX_MAG =   1.60;   BMIX_MAG =  1.00
     AMIN     =   0.10
     WC   =   100.;   INIMIX=   1;  MIXPRE=   1;  MAXMIX= -45

 Intra band minimization:
   WEIMIN = 0.0000     energy-eigenvalue tresh-hold
   EBREAK =  0.16E-06  absolut break condition
   DEPER  =   0.30     relativ break condition  

   TIME   =   0.20     timestep for ELM

  volume/ion in A,a.u.               =      52.95       357.31
  Fermi-wavevector in a.u.,A,eV,Ry     =   0.704338  1.331006  6.749748  0.496092
  Thomas-Fermi vector in A             =   1.789553
 
 Write flags
   LWAVE        =      T    write WAVECAR
   LDOWNSAMPLE  =      F    k-point downsampling of WAVECAR
   LCHARG       =      T    write CHGCAR
   LVTOT        =      F    write LOCPOT, total local potential
   LVHAR        =      T    write LOCPOT, Hartree potential only
   LELF         =      F    write electronic localiz. function (ELF)
   LORBIT       =     11    0 simple, 1 ext, 2 COOP (PROOUT), +10 PAW based schemes


 Dipole corrections
   LMONO  =      F    monopole corrections only (constant potential shift)
   LDIPOL =      T    correct potential (dipole corrections)
   IDIPOL =      3    1-x, 2-y, 3-z, 4-all directions 
   EPSILON=  1.0000000 bulk dielectric constant

 Exchange correlation treatment:
   GGA     =    PE    GGA type
   LEXCH   =     8    internal setting for exchange type
   VOSKOWN=      0    Vosko Wilk Nusair interpolation
   EXXOEP  =     0    0=HF, 1=EXX-LHF (local Hartree Fock) 2=EXX OEP
   LHFCALC =     T    Hartree Fock is set to
   LSYMGRAD=     F    symmetrize gradient (conserves proper symmetry)
   PRECFOCK=normal    Normal, Fast or Accurate (Low or Medium for compatibility)
   LRHFCALC=     F    long range Hartree Fock
   LRSCOR  =     F    long range correlation only (use DFT for short range part)
   LTHOMAS =     F    Thomas Fermi screening in HF
   LMODELHF=     F    short range full HF, long range fraction AEXX
   ENCUT4O =  -1.0   cutoff for four orbital integrals eV
   LMAXFOCK=     4    L truncation for augmentation on plane wave grid
   LMAXFOCKAE=  -1    L truncation for all-electron charge restoration on plane wave grid
   NMAXFOCKAE=   1    number of basis functions for all-electron charge restoration
   LFOCKAEDFT=     F  apply the AE augmentation even for DFT
   NKREDX  =     1    reduce k-point grid by
   NKREDY  =     1    reduce k-point grid by
   NKREDZ  =     1    reduce k-point grid by
   SHIFTRED=     F    shift reduced grid of Gamma
   HFKIDENT=     F    idential grid for each k-point
   ODDONLY =     F    use only odd q-grid points
   EVENONLY=     F    use only even q-grid points
   HFALPHA =   -1.0000 decay constant for conv. correction
   MCALPHA =    0.0000 extent of test-charge in conv. correction in multipole expansion
   AEXX    =    0.2500 exact exchange contribution
   HFSCREEN=    0.2000 screening length (either q_TF or 0.3 A-1)
   HFSCREENC=   0.2000 screening length for correlation (either q_TF or 0.3 A-1)
   HFRCUT  =    0.0000 spherical cutoff for potential kernel
   ALDAX   =    0.7500 LDA exchange part
   AGGAX   =    0.7500 GGA exchange part
   ALDAC   =    1.0000 LDA correlation
   AGGAC   =    1.0000 GGA correlation
   ENCUTFOCK=  -1.0 apply spherical cutoff to Coloumb kernel
   NBANDSGWLOW=     1    first orbital included in HF term
   NBLOCK_FOCK=    64    blocking factor in FOCK_ACC
 Linear response parameters
   LEPSILON=     F    determine dielectric tensor
   LRPA    =     F    only Hartree local field effects (RPA)
   LNABLA  =     F    use nabla operator in PAW spheres
   LVEL    =     F    velocity operator in full k-point grid
   LINTERFAST=   F  fast interpolation
   KINTER  =     0    interpolate to denser k-point grid
   CSHIFT  =0.1000    complex shift for real part using Kramers Kronig
   OMEGAMAX=  -1.0    maximum frequency
   DEG_THRESHOLD= 0.2000000E-02 threshold for treating states as degnerate
   RTIME   =   -0.100 relaxation time in fs
  (WPLASMAI=    0.000 imaginary part of plasma frequency in eV, 0.658/RTIME)
   DFIELD  = 0.0000000 0.0000000 0.0000000 field for delta impulse in time
 
 Orbital magnetization related:
   ORBITALMAG=     F  switch on orbital magnetization
   LCHIMAG   =     F  perturbation theory with respect to B field
   DQ        =  0.001000  dq finite difference perturbation B field
   LLRAUG    =     F  two centre corrections for induced B field



--------------------------------------------------------------------------------------------------------


 Static calculation
 charge density and potential will be updated during run
 spin polarized calculation
 Conjugate gradient for all bands (Freysoldt, et al. PRB 79, 241103 (2009))
 perform sub-space diagonalisation
    before iterative eigenvector-optimisation
 modified Broyden-mixing scheme, WC =      100.0
 initial mixing is a Kerker type mixing with AMIX =  0.4000 and BMIX =      1.0000
 Hartree-type preconditioning will be used
 using additional bands           32
 reciprocal scheme for non local part
 use partial core corrections
 no Harris-corrections to forces 
 use gradient corrections 
 use of overlap-Matrix (Vanderbilt PP)
 Gauss-broadening in eV      SIGMA  =   0.10


--------------------------------------------------------------------------------------------------------


  energy-cutoff  :      500.00
  volume of cell :     3176.88
      direct lattice vectors                 reciprocal lattice vectors
    12.888400000  0.000000000  0.000000000     0.077589150  0.001159676  0.001853713
    -0.183768974 12.295226737  0.000000000     0.000000000  0.081332376  0.004600226
    -0.462020683 -1.133916932 20.047743297     0.000000000  0.000000000  0.049880926

  length of vectors
    12.888400000 12.296600000 20.085100000     0.077619954  0.081462368  0.049880926


 
 old parameters found on file WAVECAR:
  energy-cutoff  :      500.00
  volume of cell :     3176.88
      direct lattice vectors                 reciprocal lattice vectors
    12.888400000  0.000000000  0.000000000     0.077589150  0.001159676  0.001853713
    -0.183768974 12.295226737  0.000000000     0.000000000  0.081332376  0.004600226
    -0.462020683 -1.133916932 20.047743297     0.000000000  0.000000000  0.049880926

  length of vectors

 
 k-points in units of 2pi/SCALE and weight: KPOINTS created by Atomic Simulation Env
   0.01939729  0.02062301  0.00161348       0.500
  -0.01939729  0.02004317  0.00068663       0.500
 
 k-points in reciprocal lattice and weights: KPOINTS created by Atomic Simulation Env
   0.25000000  0.25000000  0.00000000       0.500
  -0.25000000  0.25000000 -0.00000000       0.500
 
 position of ions in fractional coordinates (direct lattice) 
   0.22292214  0.00291451  0.49843631
   0.05788054  0.10167137  0.49722422
   0.11185436  0.00174982  0.49715539
   0.27999293  0.10365544  0.49960387
   0.22692791  0.20587562  0.49990804
   0.05949834  0.30183970  0.49765285
   0.11534511  0.20272347  0.49836088
   0.28420990  0.30859708  0.50148243
   0.22644553  0.40915693  0.50072226
   0.05575197  0.50112004  0.49695511
   0.11458953  0.40348815  0.49822681
   0.21778459  0.60349834  0.49847907
   0.05341206  0.70191033  0.49526532
   0.10888832  0.60264316  0.49638311
   0.27337754  0.70421520  0.49897638
   0.21926266  0.80286785  0.49719485
   0.05437087  0.90151697  0.49588268
   0.10884334  0.80206003  0.49567893
   0.27693968  0.90227354  0.49861578
   0.55542908  0.99531601  0.49950219
   0.39069709  0.10065539  0.49985808
   0.44474609  0.99837121  0.49976226
   0.61243860  0.09583965  0.49873348
   0.55843611  0.19653484  0.49921057
   0.39645529  0.30547330  0.50192936
   0.44789788  0.20122551  0.50016992
   0.61599263  0.29575687  0.49833091
   0.56198189  0.39472156  0.50001681
   0.61752869  0.49531974  0.49952764
   0.60898029  0.69006055  0.50073184
   0.55128957  0.79077367  0.50125180
   0.38755557  0.89782686  0.49988188
   0.43907079  0.79392922  0.50164831
   0.60848970  0.89312618  0.49956883
   0.88873455  0.99896530  0.49631847
   0.72340214  0.09676918  0.49759021
   0.77735216  0.99684561  0.49713225
   0.94643870  0.09941456  0.49657050
   0.89162758  0.19877829  0.49656266
   0.72631639  0.29630994  0.49704417
   0.78078751  0.19683119  0.49686075
   0.94818037  0.29954840  0.49667886
   0.89183052  0.39824733  0.49643628
   0.72625486  0.49579431  0.49733783
   0.78167382  0.39638366  0.49657851
   0.94578002  0.49946563  0.49636225
   0.88928416  0.59886322  0.49604255
   0.72063758  0.69520453  0.49776940
   0.77937088  0.59734937  0.49694334
   0.94322181  0.70003029  0.49533466
   0.88691965  0.79879097  0.49561348
   0.71992378  0.89596791  0.49781833
   0.77569739  0.79671476  0.49681940
   0.94350846  0.89953353  0.49570624
   0.27567232  0.51013707  0.50236197
   0.45554376  0.40059545  0.50377597
   0.55987008  0.58943547  0.50296184
   0.38006373  0.69912827  0.50330385
   0.41808286  0.55086926  0.51413596
   0.42047836  0.56099838  0.62160211
 
 position of ions in cartesian coordinates  (Angst):
   2.64228628 -0.52935079  9.99252320
   0.49757566  0.68626154  9.96822358
   1.21160604 -0.54221845  9.96684372
   3.35878494  0.70795783 10.01593017
   2.65593624  1.96443325 10.02202808
   0.48144371  3.14689060  9.97681663
   1.21910666  1.92743121  9.99101095
   3.37460501  3.22563165 10.05359102
   2.61198612  4.46289973 10.03835128
   0.39685979  5.59787875  9.96282839
   1.17253606  4.39603049  9.98832315
   2.46568303  6.85491501  9.99338052
   0.33058379  8.06855698  9.92895195
   1.06330979  6.84677702  9.95136118
   3.16344876  8.09268779 10.00335039
   2.44868833  9.30766460  9.96763478
   0.30597460 10.52206582  9.94132862
   1.02640878  9.29945117  9.93724388
   3.17312874 10.52826894  9.99612109
   6.74490357 11.67124205 10.01389160
   4.78601829  0.67078326 10.02102650
   5.31769539 11.70851152 10.01910540
   7.64531611  0.61284790  9.99848069
   6.93058532  1.85037713 10.00804536
   4.82163606  3.18671725 10.06255086
   5.50461913  1.90696215 10.02727816
   7.65456931  3.07133196  9.99041006
   6.93949168  4.28621355 10.02420864
   7.63714023  5.52364560 10.01440193
   7.49062135  7.91666263 10.03854344
   6.72833215  9.15436367 10.04896745
   4.59902271 10.47216032 10.02150360
   5.28124856  9.19271224 10.05691654
   7.44751868 10.41471933 10.01522768
  11.04147809 11.71972093  9.95006529
   9.07581595  0.62557303  9.97556077
   9.60595089 11.69273618  9.96637974
  11.95038539  0.65925490  9.95511792
  11.22570135  1.88096333  9.95496064
   9.07695896  3.07959104  9.96461402
   9.79737039  1.85668532  9.96093681
  11.93600422  3.11982289  9.95729036
  11.19171919  4.33362368  9.95242712
   9.03937121  5.53196371  9.97050119
   9.77225227  4.31054821  9.95527859
  11.86847525  5.57820962  9.95094287
  11.12221562  6.80068804  9.94453363
   8.93012865  7.98326814  9.97915315
   9.70547127  6.78105350  9.96259252
  11.79912127  8.04536280  9.93034208
  11.05519852  9.25933153  9.93593188
   8.88401212 10.45164399  9.98013399
   9.62154597  9.23243670  9.96010776
  11.76598159 10.49787906  9.93779149
   3.22712609  5.70261425 10.07122390
   5.56485826  4.35417181 10.09957140
   6.87513086  6.67692577 10.08324980
   4.53739846  8.02523579 10.09010643
   5.04964497  6.19007495 10.30726571
   5.02900613  6.19275710 12.46171954
 


--------------------------------------------------------------------------------------------------------


 k-point  1 :   0.2500 0.2500 0.0000  plane waves:   80685
 k-point  2 :  -0.2500 0.2500-0.0000  plane waves:   80655

 maximum and minimum number of plane-waves per node :      2038     1969

 maximum number of plane-waves:     80685
 maximum index in each direction: 
   IXMAX=   23   IYMAX=   22   IZMAX=   36
   IXMIN=  -23   IYMIN=  -22   IZMIN=  -36


 parallel 3D FFT for wavefunctions:
    minimum data exchange during FFTs selected (reduces bandwidth)
 parallel 3D FFT for charge:
    minimum data exchange during FFTs selected (reduces bandwidth)


 FFT grid for exact exchange (Hartree Fock) 
  NGX = 72; NGY = 70; NGZ =112

 
 Radii for the augmentation spheres in the non-local exchange
 for species   1 augmentation radius   0.874 (default was   0.699)
       energy cutoff for augmentation   2000.0
 for species   2 augmentation radius   0.886 (default was   0.709)
       energy cutoff for augmentation   2000.0
 for species   3 augmentation radius   1.263 (default was   1.010)
       energy cutoff for augmentation   2000.0
 for species   4 augmentation radius   1.307 (default was   1.045)
       energy cutoff for augmentation   2000.0

 real space projection operators:
  total allocation   :       2643.25 KBytes
  max/ min on nodes  :        122.46         21.59

 Maximum index for augmentation-charges in exchange           79
  SETUP_FOCK is finished

 total amount of memory used by VASP MPI-rank0   139976. kBytes
=======================================================================

   base      :      30000. kBytes
   nonl-proj :       4321. kBytes
   fftplans  :      11188. kBytes
   grid      :      29312. kBytes
   one-center:         62. kBytes
   HF        :         23. kBytes
   nonlr-proj:       1818. kBytes
   wavefun   :      63252. kBytes
 
     INWAV:  cpu time    4.1677: real time    4.1792
 Broyden mixing: mesh for mixing (old mesh)
   NGX = 47   NGY = 45   NGZ = 73
  (NGX  =192   NGY  =180   NGZ  =300)
  gives a total of 154395 points

 charge density for first step will be calculated from the start-wavefunctions


--------------------------------------------------------------------------------------------------------


 Maximum index for augmentation-charges          749 (set IRDMAX)


--------------------------------------------------------------------------------------------------------


 initial charge from wavefunction
 First call to EWALD:  gamma=   0.121
 Maximum number of real-space cells 3x 3x 2
 Maximum number of reciprocal cells 2x 2x 4

    FEWALD:  cpu time    0.0023: real time    0.0023


--------------------------------------- Iteration      1(   1)  ---------------------------------------


    POTLOK:  cpu time    0.8502: real time    0.8549
    SETDIJ:  cpu time    0.9774: real time    0.9805
    TRIAL :  cpu time  171.1038: real time  171.6418
    CORREC:  cpu time    0.0007: real time    0.0007
    CHARGE:  cpu time    0.7625: real time    0.7649
    --------------------------------------------
      LOOP:  cpu time  173.7155: real time  174.2661

 eigenvalue-minimisations  :     0
 total energy-change (2. order) :-0.6289529E+03  (-0.4571821E+00)
 number of electron     253.0000006 magnetization       3.0000159
 augmentation part       15.3819072 magnetization       2.4718810

 DIPCOR: dipole corrections for dipol
 direction  3 min pos     1,
 dipolmoment           0.004532      0.011122     -0.196634 electrons x Angstroem
 Tr[quadrupol]     -7045.644959

 energy correction for charged system         0.000000 eV
 dipol+quadrupol energy correction           -0.001113 eV
 added-field ion interaction          0.192902 eV  (added to PSCEN)


 Free energy of the ion-electron system (eV)
  ---------------------------------------------------
  alpha Z        PSCENC =       106.00131404
  Ewald energy   TEWEN  =     41390.85419692
  -Hartree energ DENC   =    -50303.86232812
  -exchange      EXHF   =       573.33709731
  -V(xc)+E(xc)   XCENC  =       646.78833327
  PAW double counting   =     27534.61282383   -27622.80015872
  entropy T*S    EENTRO =        -0.00000773
  eigenvalues    EBANDS =     -3249.21502401
  atomic energy  EATOM  =     10295.33085592
  ---------------------------------------------------
  free energy    TOTEN  =      -628.95293371 eV

  energy without entropy =     -628.95292598  energy(sigma->0) =     -628.95292984
  exchange ACFDT corr.  =        -0.00003190  see jH, gK, PRB 81, 115126


--------------------------------------------------------------------------------------------------------




--------------------------------------- Iteration      1(   2)  ---------------------------------------


    POTLOK:  cpu time    0.8619: real time    0.8649
    SETDIJ:  cpu time    0.9987: real time    1.0017
    TRIAL :  cpu time  169.6239: real time  170.1244
    CORREC:  cpu time    0.0007: real time    0.0007
    CHARGE:  cpu time    0.7645: real time    0.7665
    --------------------------------------------
      LOOP:  cpu time  172.2510: real time  172.7626

 eigenvalue-minimisations  :     0
 total energy-change (2. order) :-0.3770149E+00  (-0.3997998E+00)
 number of electron     253.0000006 magnetization       3.0000025
 augmentation part       15.3659112 magnetization       2.5251645

 DIPCOR: dipole corrections for dipol
 direction  3 min pos     1,
 dipolmoment           0.005646      0.013858     -0.245008 electrons x Angstroem
 Tr[quadrupol]     -7045.642918

 energy correction for charged system         0.000000 eV
 dipol+quadrupol energy correction           -0.001728 eV
 added-field ion interaction          0.240357 eV  (added to PSCEN)


 Free energy of the ion-electron system (eV)
  ---------------------------------------------------
  alpha Z        PSCENC =       106.04815430
  Ewald energy   TEWEN  =     41390.85419692
  -Hartree energ DENC   =    -50295.14199238
  -exchange      EXHF   =       573.26117471
  -V(xc)+E(xc)   XCENC  =       646.47055123
  PAW double counting   =     27667.37636533   -27755.93103096
  entropy T*S    EENTRO =        -0.00000125
  eigenvalues    EBANDS =     -3257.59821592
  atomic energy  EATOM  =     10295.33085592
  ---------------------------------------------------
  free energy    TOTEN  =      -629.32994858 eV

  energy without entropy =     -629.32994733  energy(sigma->0) =     -629.32994795
  exchange ACFDT corr.  =        -0.00001101  see jH, gK, PRB 81, 115126


--------------------------------------------------------------------------------------------------------




--------------------------------------- Iteration      1(   3)  ---------------------------------------


    POTLOK:  cpu time    0.8681: real time    0.8718
    SETDIJ:  cpu time    0.9946: real time    0.9972
    TRIAL :  cpu time  170.3217: real time  170.8525
    CORREC:  cpu time    0.0006: real time    0.0006
    CHARGE:  cpu time    0.7607: real time    0.7627
    --------------------------------------------
      LOOP:  cpu time  172.9470: real time  173.4893

 eigenvalue-minimisations  :     0
 total energy-change (2. order) :-0.3062982E+00  (-0.2268766E+00)
 number of electron     253.0000006 magnetization       3.0000006
 augmentation part       15.3476184 magnetization       2.5687291

 DIPCOR: dipole corrections for dipol
 direction  3 min pos     1,
 dipolmoment           0.006949      0.017056     -0.301545 electrons x Angstroem
 Tr[quadrupol]     -7045.663460

 energy correction for charged system         0.000000 eV
 dipol+quadrupol energy correction           -0.002618 eV
 added-field ion interaction          0.295821 eV  (added to PSCEN)


 Free energy of the ion-electron system (eV)
  ---------------------------------------------------
  alpha Z        PSCENC =       106.10272871
  Ewald energy   TEWEN  =     41390.85419692
  -Hartree energ DENC   =    -50284.08619855
  -exchange      EXHF   =       573.20599702
  -V(xc)+E(xc)   XCENC  =       646.09509290
  PAW double counting   =     27833.64962603   -27921.99700579
  entropy T*S    EENTRO =        -0.00000028
  eigenvalues    EBANDS =     -3268.79153871
  atomic energy  EATOM  =     10295.33085592
  ---------------------------------------------------
  free energy    TOTEN  =      -629.63624681 eV

  energy without entropy =     -629.63624653  energy(sigma->0) =     -629.63624667
  exchange ACFDT corr.  =        -0.00000074  see jH, gK, PRB 81, 115126


--------------------------------------------------------------------------------------------------------




--------------------------------------- Iteration      1(   4)  ---------------------------------------


    POTLOK:  cpu time    0.8701: real time    0.8725
    SETDIJ:  cpu time    0.9981: real time    1.0019
    TRIAL :  cpu time  170.5253: real time  171.0949
    CORREC:  cpu time    0.0006: real time    0.0006
    CHARGE:  cpu time    0.7611: real time    0.7631
    --------------------------------------------
      LOOP:  cpu time  173.1567: real time  173.7378

 eigenvalue-minimisations  :     0
 total energy-change (2. order) :-0.1724721E+00  (-0.1293173E+00)
 number of electron     253.0000007 magnetization       3.0000003
 augmentation part       15.3489280 magnetization       2.5961570

 DIPCOR: dipole corrections for dipol
 direction  3 min pos     1,
 dipolmoment           0.007782      0.019099     -0.337666 electrons x Angstroem
 Tr[quadrupol]     -7045.736258

 energy correction for charged system         0.000000 eV
 dipol+quadrupol energy correction           -0.003283 eV
 added-field ion interaction          0.331257 eV  (added to PSCEN)


 Free energy of the ion-electron system (eV)
  ---------------------------------------------------
  alpha Z        PSCENC =       106.13749952
  Ewald energy   TEWEN  =     41390.85419692
  -Hartree energ DENC   =    -50278.49761590
  -exchange      EXHF   =       573.30656795
  -V(xc)+E(xc)   XCENC  =       645.89777168
  PAW double counting   =     27976.54464669   -28064.46230906
  entropy T*S    EENTRO =        -0.00000008
  eigenvalues    EBANDS =     -3274.92033235
  atomic energy  EATOM  =     10295.33085592
  ---------------------------------------------------
  free energy    TOTEN  =      -629.80871892 eV

  energy without entropy =     -629.80871883  energy(sigma->0) =     -629.80871887
  exchange ACFDT corr.  =        -0.00000011  see jH, gK, PRB 81, 115126


--------------------------------------------------------------------------------------------------------




--------------------------------------- Iteration      1(   5)  ---------------------------------------


    POTLOK:  cpu time    0.8709: real time    0.8734
    SETDIJ:  cpu time    1.0082: real time    1.0107
    TRIAL :  cpu time  169.8095: real time  170.3085
    CORREC:  cpu time    0.0006: real time    0.0006
    CHARGE:  cpu time    0.7644: real time    0.7663
    --------------------------------------------
      LOOP:  cpu time  172.4555: real time  172.9649

 eigenvalue-minimisations  :     0
 total energy-change (2. order) :-0.1045849E+00  (-0.8758458E-01)
 number of electron     253.0000007 magnetization       3.0000002
 augmentation part       15.3616941 magnetization       2.6111357

 DIPCOR: dipole corrections for dipol
 direction  3 min pos     1,
 dipolmoment           0.008052      0.019761     -0.349383 electrons x Angstroem
 Tr[quadrupol]     -7045.831291

 energy correction for charged system         0.000000 eV
 dipol+quadrupol energy correction           -0.003515 eV
 added-field ion interaction          0.342752 eV  (added to PSCEN)


 Free energy of the ion-electron system (eV)
  ---------------------------------------------------
  alpha Z        PSCENC =       106.14876254
  Ewald energy   TEWEN  =     41390.85419692
  -Hartree energ DENC   =    -50279.79514511
  -exchange      EXHF   =       573.56121892
  -V(xc)+E(xc)   XCENC  =       645.92232022
  PAW double counting   =     28080.82662699   -28168.67474087
  entropy T*S    EENTRO =        -0.00000003
  eigenvalues    EBANDS =     -3274.08739929
  atomic energy  EATOM  =     10295.33085592
  ---------------------------------------------------
  free energy    TOTEN  =      -629.91330386 eV

  energy without entropy =     -629.91330383  energy(sigma->0) =     -629.91330385
  exchange ACFDT corr.  =        -0.00000003  see jH, gK, PRB 81, 115126


--------------------------------------------------------------------------------------------------------




--------------------------------------- Iteration      1(   6)  ---------------------------------------


    POTLOK:  cpu time    0.8676: real time    0.8714
    SETDIJ:  cpu time    1.0005: real time    1.0031
    TRIAL :  cpu time  170.1176: real time  170.6319
    CORREC:  cpu time    0.0008: real time    0.0008
    CHARGE:  cpu time    0.7625: real time    0.7646
    --------------------------------------------
      LOOP:  cpu time  172.7497: real time  173.2763

 eigenvalue-minimisations  :     0
 total energy-change (2. order) :-0.7381634E-01  (-0.6240406E-01)
 number of electron     253.0000007 magnetization       3.0000002
 augmentation part       15.3724710 magnetization       2.6190128

 DIPCOR: dipole corrections for dipol
 direction  3 min pos     1,
 dipolmoment           0.008110      0.019905     -0.351921 electrons x Angstroem
 Tr[quadrupol]     -7045.915259

 energy correction for charged system         0.000000 eV
 dipol+quadrupol energy correction           -0.003566 eV
 added-field ion interaction          0.345241 eV  (added to PSCEN)


 Free energy of the ion-electron system (eV)
  ---------------------------------------------------
  alpha Z        PSCENC =       106.15120081
  Ewald energy   TEWEN  =     41390.85419692
  -Hartree energ DENC   =    -50284.17016609
  -exchange      EXHF   =       573.85698566
  -V(xc)+E(xc)   XCENC  =       646.05172389
  PAW double counting   =     28149.07705380   -28237.10119814
  entropy T*S    EENTRO =        -0.00000001
  eigenvalues    EBANDS =     -3270.03777294
  atomic energy  EATOM  =     10295.33085592
  ---------------------------------------------------
  free energy    TOTEN  =      -629.98712020 eV

  energy without entropy =     -629.98712019  energy(sigma->0) =     -629.98712019
  exchange ACFDT corr.  =        -0.00000001  see jH, gK, PRB 81, 115126


--------------------------------------------------------------------------------------------------------




--------------------------------------- Iteration      1(   7)  ---------------------------------------


    POTLOK:  cpu time    0.8658: real time    0.8690
    SETDIJ:  cpu time    0.9996: real time    1.0035
    TRIAL :  cpu time  170.2369: real time  170.7382
    CORREC:  cpu time    0.0006: real time    0.0006
    CHARGE:  cpu time    0.7579: real time    0.7599
    --------------------------------------------
      LOOP:  cpu time  172.8623: real time  173.3760

 eigenvalue-minimisations  :     0
 total energy-change (2. order) :-0.5413089E-01  (-0.4652894E-01)
 number of electron     253.0000007 magnetization       3.0000001
 augmentation part       15.3779967 magnetization       2.6236293

 DIPCOR: dipole corrections for dipol
 direction  3 min pos     1,
 dipolmoment           0.008195      0.020112     -0.355575 electrons x Angstroem
 Tr[quadrupol]     -7045.974560

 energy correction for charged system         0.000000 eV
 dipol+quadrupol energy correction           -0.003640 eV
 added-field ion interaction          0.348825 eV  (added to PSCEN)


 Free energy of the ion-electron system (eV)
  ---------------------------------------------------
  alpha Z        PSCENC =       106.15471060
  Ewald energy   TEWEN  =     41390.85419692
  -Hartree energ DENC   =    -50288.19342715
  -exchange      EXHF   =       574.10266786
  -V(xc)+E(xc)   XCENC  =       646.17664660
  PAW double counting   =     28189.77251902   -28277.92422286
  entropy T*S    EENTRO =        -0.00000001
  eigenvalues    EBANDS =     -3266.31519799
  atomic energy  EATOM  =     10295.33085592
  ---------------------------------------------------
  free energy    TOTEN  =      -630.04125109 eV

  energy without entropy =     -630.04125109  energy(sigma->0) =     -630.04125109
  exchange ACFDT corr.  =        -0.00000000  see jH, gK, PRB 81, 115126


--------------------------------------------------------------------------------------------------------




--------------------------------------- Iteration      1(   8)  ---------------------------------------


    POTLOK:  cpu time    0.8632: real time    0.8663
    SETDIJ:  cpu time    0.9884: real time    0.9909
    TRIAL :  cpu time  170.0720: real time  170.5768
    CORREC:  cpu time    0.0006: real time    0.0006
    CHARGE:  cpu time    0.7584: real time    0.7602
    --------------------------------------------
      LOOP:  cpu time  172.6837: real time  173.1998

 eigenvalue-minimisations  :     0
 total energy-change (2. order) :-0.4136930E-01  (-0.3614324E-01)
 number of electron     253.0000007 magnetization       3.0000001
 augmentation part       15.3818984 magnetization       2.6275039

 DIPCOR: dipole corrections for dipol
 direction  3 min pos     1,
 dipolmoment           0.008286      0.020336     -0.359547 electrons x Angstroem
 Tr[quadrupol]     -7046.005301

 energy correction for charged system         0.000000 eV
 dipol+quadrupol energy correction           -0.003722 eV
 added-field ion interaction          0.352723 eV  (added to PSCEN)


 Free energy of the ion-electron system (eV)
  ---------------------------------------------------
  alpha Z        PSCENC =       106.15852599
  Ewald energy   TEWEN  =     41390.85419692
  -Hartree energ DENC   =    -50290.58976719
  -exchange      EXHF   =       574.27329650
  -V(xc)+E(xc)   XCENC  =       646.25721016
  PAW double counting   =     28211.90070556   -28300.07323044
  entropy T*S    EENTRO =        -0.00000000
  eigenvalues    EBANDS =     -3264.19441379
  atomic energy  EATOM  =     10295.33085592
  ---------------------------------------------------
  free energy    TOTEN  =      -630.08262039 eV

  energy without entropy =     -630.08262039  energy(sigma->0) =     -630.08262039
  exchange ACFDT corr.  =        -0.00000000  see jH, gK, PRB 81, 115126


--------------------------------------------------------------------------------------------------------




--------------------------------------- Iteration      1(   9)  ---------------------------------------


    POTLOK:  cpu time    0.8621: real time    0.8652
    SETDIJ:  cpu time    0.9927: real time    0.9953
    TRIAL :  cpu time  169.4468: real time  169.9622
    CORREC:  cpu time    0.0005: real time    0.0005
    CHARGE:  cpu time    0.7596: real time    0.7615
    --------------------------------------------
      LOOP:  cpu time  172.0630: real time  172.5894

 eigenvalue-minimisations  :     0
 total energy-change (2. order) :-0.3273361E-01  (-0.2903064E-01)
 number of electron     253.0000007 magnetization       3.0000001
 augmentation part       15.3866669 magnetization       2.6319115

 DIPCOR: dipole corrections for dipol
 direction  3 min pos     1,
 dipolmoment           0.008311      0.020398     -0.360644 electrons x Angstroem
 Tr[quadrupol]     -7046.012570

 energy correction for charged system         0.000000 eV
 dipol+quadrupol energy correction           -0.003745 eV
 added-field ion interaction          0.353799 eV  (added to PSCEN)


 Free energy of the ion-electron system (eV)
  ---------------------------------------------------
  alpha Z        PSCENC =       106.15957926
  Ewald energy   TEWEN  =     41390.85419692
  -Hartree energ DENC   =    -50291.63891234
  -exchange      EXHF   =       574.38644156
  -V(xc)+E(xc)   XCENC  =       646.30131844
  PAW double counting   =     28223.06490956   -28311.25109265
  entropy T*S    EENTRO =        -0.00000000
  eigenvalues    EBANDS =     -3263.32265065
  atomic energy  EATOM  =     10295.33085592
  ---------------------------------------------------
  free energy    TOTEN  =      -630.11535400 eV

  energy without entropy =     -630.11535400  energy(sigma->0) =     -630.11535400
  exchange ACFDT corr.  =        -0.00000000  see jH, gK, PRB 81, 115126


--------------------------------------------------------------------------------------------------------




--------------------------------------- Iteration      1(  10)  ---------------------------------------


    POTLOK:  cpu time    0.8593: real time    0.8619
    SETDIJ:  cpu time    0.9907: real time    0.9934
    TRIAL :  cpu time  169.2372: real time  169.7554
    CORREC:  cpu time    0.0005: real time    0.0005
    CHARGE:  cpu time    0.7563: real time    0.7581
    --------------------------------------------
      LOOP:  cpu time  171.8451: real time  172.3746

 eigenvalue-minimisations  :     0
 total energy-change (2. order) :-0.2665410E-01  (-0.2384288E-01)
 number of electron     253.0000007 magnetization       3.0000001
 augmentation part       15.3912549 magnetization       2.6368492

 DIPCOR: dipole corrections for dipol
 direction  3 min pos     1,
 dipolmoment           0.008265      0.020285     -0.358647 electrons x Angstroem
 Tr[quadrupol]     -7046.007024

 energy correction for charged system         0.000000 eV
 dipol+quadrupol energy correction           -0.003704 eV
 added-field ion interaction          0.351839 eV  (added to PSCEN)


 Free energy of the ion-electron system (eV)
  ---------------------------------------------------
  alpha Z        PSCENC =       106.15766118
  Ewald energy   TEWEN  =     41390.85419692
  -Hartree energ DENC   =    -50292.00128022
  -exchange      EXHF   =       574.46662434
  -V(xc)+E(xc)   XCENC  =       646.32660613
  PAW double counting   =     28228.32463668   -28316.56688759
  entropy T*S    EENTRO =        -0.00000000
  eigenvalues    EBANDS =     -3263.03442146
  atomic energy  EATOM  =     10295.33085592
  ---------------------------------------------------
  free energy    TOTEN  =      -630.14200810 eV

  energy without entropy =     -630.14200810  energy(sigma->0) =     -630.14200810
  exchange ACFDT corr.  =        -0.00000000  see jH, gK, PRB 81, 115126


--------------------------------------------------------------------------------------------------------




--------------------------------------- Iteration      1(  11)  ---------------------------------------


    POTLOK:  cpu time    0.8654: real time    0.8773
    SETDIJ:  cpu time    1.0011: real time    1.0037
    TRIAL :  cpu time  169.4837: real time  169.9890
    CORREC:  cpu time    0.0007: real time    0.0007
    CHARGE:  cpu time    0.7626: real time    0.7645
    --------------------------------------------
      LOOP:  cpu time  172.1145: real time  172.6402

 eigenvalue-minimisations  :     0
 total energy-change (2. order) :-0.2212822E-01  (-0.1995976E-01)
 number of electron     253.0000007 magnetization       3.0000001
 augmentation part       15.3946389 magnetization       2.6419000

 DIPCOR: dipole corrections for dipol
 direction  3 min pos     1,
 dipolmoment           0.008190      0.020101     -0.355389 electrons x Angstroem
 Tr[quadrupol]     -7045.997311

 energy correction for charged system         0.000000 eV
 dipol+quadrupol energy correction           -0.003637 eV
 added-field ion interaction          0.348643 eV  (added to PSCEN)


 Free energy of the ion-electron system (eV)
  ---------------------------------------------------
  alpha Z        PSCENC =       106.15453187
  Ewald energy   TEWEN  =     41390.85419692
  -Hartree energ DENC   =    -50292.04098311
  -exchange      EXHF   =       574.52818005
  -V(xc)+E(xc)   XCENC  =       646.34219424
  PAW double counting   =     28230.48730503   -28318.78232219
  entropy T*S    EENTRO =        -0.00000000
  eigenvalues    EBANDS =     -3263.03809505
  atomic energy  EATOM  =     10295.33085592
  ---------------------------------------------------
  free energy    TOTEN  =      -630.16413633 eV

  energy without entropy =     -630.16413633  energy(sigma->0) =     -630.16413633
  exchange ACFDT corr.  =        -0.00000000  see jH, gK, PRB 81, 115126


--------------------------------------------------------------------------------------------------------




--------------------------------------- Iteration      1(  12)  ---------------------------------------


    POTLOK:  cpu time    0.8547: real time    0.8602
    SETDIJ:  cpu time    1.0105: real time    1.0134
    TRIAL :  cpu time  169.2093: real time  169.7493
    CORREC:  cpu time    0.0005: real time    0.0005
    CHARGE:  cpu time    0.7622: real time    0.7641
    --------------------------------------------
      LOOP:  cpu time  171.8381: real time  172.3921

 eigenvalue-minimisations  :     0
 total energy-change (2. order) :-0.1868701E-01  (-0.1695089E-01)
 number of electron     253.0000007 magnetization       3.0000001
 augmentation part       15.3976552 magnetization       2.6468746

 DIPCOR: dipole corrections for dipol
 direction  3 min pos     1,
 dipolmoment           0.008115      0.019915     -0.352105 electrons x Angstroem
 Tr[quadrupol]     -7045.986611

 energy correction for charged system         0.000000 eV
 dipol+quadrupol energy correction           -0.003570 eV
 added-field ion interaction          0.345421 eV  (added to PSCEN)


 Free energy of the ion-electron system (eV)
  ---------------------------------------------------
  alpha Z        PSCENC =       106.15137729
  Ewald energy   TEWEN  =     41390.85419692
  -Hartree energ DENC   =    -50291.91300598
  -exchange      EXHF   =       574.57921742
  -V(xc)+E(xc)   XCENC  =       646.35295192
  PAW double counting   =     28231.32499206   -28319.63945086
  entropy T*S    EENTRO =        -0.00000000
  eigenvalues    EBANDS =     -3263.22395802
  atomic energy  EATOM  =     10295.33085592
  ---------------------------------------------------
  free energy    TOTEN  =      -630.18282334 eV

  energy without entropy =     -630.18282334  energy(sigma->0) =     -630.18282334
  exchange ACFDT corr.  =        -0.00000000  see jH, gK, PRB 81, 115126


--------------------------------------------------------------------------------------------------------




--------------------------------------- Iteration      1(  13)  ---------------------------------------


    POTLOK:  cpu time    0.8573: real time    0.8598
    SETDIJ:  cpu time    1.0103: real time    1.0130
    TRIAL :  cpu time  169.6414: real time  170.1547
    CORREC:  cpu time    0.0005: real time    0.0005
    CHARGE:  cpu time    0.7578: real time    0.7598
    --------------------------------------------
      LOOP:  cpu time  172.2689: real time  172.7927

 eigenvalue-minimisations  :     0
 total energy-change (2. order) :-0.1597541E-01  (-0.1454765E-01)
 number of electron     253.0000007 magnetization       3.0000001
 augmentation part       15.4009048 magnetization       2.6516765

 DIPCOR: dipole corrections for dipol
 direction  3 min pos     1,
 dipolmoment           0.008047      0.019749     -0.349170 electrons x Angstroem
 Tr[quadrupol]     -7045.976006

 energy correction for charged system         0.000000 eV
 dipol+quadrupol energy correction           -0.003510 eV
 added-field ion interaction          0.342542 eV  (added to PSCEN)


 Free energy of the ion-electron system (eV)
  ---------------------------------------------------
  alpha Z        PSCENC =       106.14855740
  Ewald energy   TEWEN  =     41390.85419692
  -Hartree energ DENC   =    -50291.78722774
  -exchange      EXHF   =       574.62610079
  -V(xc)+E(xc)   XCENC  =       646.36384844
  PAW double counting   =     28232.15992678   -28320.48877721
  entropy T*S    EENTRO =        -0.00000000
  eigenvalues    EBANDS =     -3263.40628005
  atomic energy  EATOM  =     10295.33085592
  ---------------------------------------------------
  free energy    TOTEN  =      -630.19879875 eV

  energy without entropy =     -630.19879875  energy(sigma->0) =     -630.19879875
  exchange ACFDT corr.  =        -0.00000000  see jH, gK, PRB 81, 115126


--------------------------------------------------------------------------------------------------------




--------------------------------------- Iteration      1(  14)  ---------------------------------------


    POTLOK:  cpu time    0.8591: real time    0.8615
    SETDIJ:  cpu time    1.0006: real time    1.0032
    TRIAL :  cpu time  169.2196: real time  169.7256
    CORREC:  cpu time    0.0005: real time    0.0005
    CHARGE:  cpu time    0.7565: real time    0.7584
    --------------------------------------------
      LOOP:  cpu time  171.8376: real time  172.3541

 eigenvalue-minimisations  :     0
 total energy-change (2. order) :-0.1378330E-01  (-0.1258360E-01)
 number of electron     253.0000006 magnetization       3.0000001
 augmentation part       15.4038024 magnetization       2.6561344

 DIPCOR: dipole corrections for dipol
 direction  3 min pos     1,
 dipolmoment           0.007993      0.019616     -0.346817 electrons x Angstroem
 Tr[quadrupol]     -7045.966872

 energy correction for charged system         0.000000 eV
 dipol+quadrupol energy correction           -0.003463 eV
 added-field ion interaction          0.340233 eV  (added to PSCEN)


 Free energy of the ion-electron system (eV)
  ---------------------------------------------------
  alpha Z        PSCENC =       106.14629583
  Ewald energy   TEWEN  =     41390.85419692
  -Hartree energ DENC   =    -50291.76579162
  -exchange      EXHF   =       574.67077883
  -V(xc)+E(xc)   XCENC  =       646.37618547
  PAW double counting   =     28233.47188818   -28321.82605845
  entropy T*S    EENTRO =        -0.00000000
  eigenvalues    EBANDS =     -3263.47093313
  atomic energy  EATOM  =     10295.33085592
  ---------------------------------------------------
  free energy    TOTEN  =      -630.21258205 eV

  energy without entropy =     -630.21258205  energy(sigma->0) =     -630.21258205
  exchange ACFDT corr.  =        -0.00000000  see jH, gK, PRB 81, 115126


--------------------------------------------------------------------------------------------------------




--------------------------------------- Iteration      1(  15)  ---------------------------------------


    POTLOK:  cpu time    0.8558: real time    0.8609
    SETDIJ:  cpu time    1.0083: real time    1.0112
    TRIAL :  cpu time  169.1903: real time  169.6993
    CORREC:  cpu time    0.0005: real time    0.0005
    CHARGE:  cpu time    0.7582: real time    0.7601
    --------------------------------------------
      LOOP:  cpu time  171.8142: real time  172.3368

 eigenvalue-minimisations  :     0
 total energy-change (2. order) :-0.1197420E-01  (-0.1096032E-01)
 number of electron     253.0000006 magnetization       3.0000001
 augmentation part       15.4062402 magnetization       2.6603803

 DIPCOR: dipole corrections for dipol
 direction  3 min pos     1,
 dipolmoment           0.007949      0.019509     -0.344913 electrons x Angstroem
 Tr[quadrupol]     -7045.959216

 energy correction for charged system         0.000000 eV
 dipol+quadrupol energy correction           -0.003425 eV
 added-field ion interaction          0.338366 eV  (added to PSCEN)


 Free energy of the ion-electron system (eV)
  ---------------------------------------------------
  alpha Z        PSCENC =       106.14446614
  Ewald energy   TEWEN  =     41390.85419692
  -Hartree energ DENC   =    -50291.78959141
  -exchange      EXHF   =       574.71143156
  -V(xc)+E(xc)   XCENC  =       646.38747904
  PAW double counting   =     28235.17438720   -28323.54774062
  entropy T*S    EENTRO =        -0.00000000
  eigenvalues    EBANDS =     -3263.49004100
  atomic energy  EATOM  =     10295.33085592
  ---------------------------------------------------
  free energy    TOTEN  =      -630.22455625 eV

  energy without entropy =     -630.22455625  energy(sigma->0) =     -630.22455625
  exchange ACFDT corr.  =        -0.00000000  see jH, gK, PRB 81, 115126


--------------------------------------------------------------------------------------------------------




--------------------------------------- Iteration      1(  16)  ---------------------------------------


    POTLOK:  cpu time    0.8581: real time    0.8606
    SETDIJ:  cpu time    0.9913: real time    0.9939
    TRIAL :  cpu time  168.9924: real time  169.5107
    CORREC:  cpu time    0.0005: real time    0.0005
    CHARGE:  cpu time    0.7555: real time    0.7575
    --------------------------------------------
      LOOP:  cpu time  171.5994: real time  172.1282

 eigenvalue-minimisations  :     0
 total energy-change (2. order) :-0.1046431E-01  (-0.9602415E-02)
 number of electron     253.0000006 magnetization       3.0000001
 augmentation part       15.4084876 magnetization       2.6646109

 DIPCOR: dipole corrections for dipol
 direction  3 min pos     1,
 dipolmoment           0.007903      0.019395     -0.342905 electrons x Angstroem
 Tr[quadrupol]     -7045.951791

 energy correction for charged system         0.000000 eV
 dipol+quadrupol energy correction           -0.003386 eV
 added-field ion interaction          0.336396 eV  (added to PSCEN)


 Free energy of the ion-electron system (eV)
  ---------------------------------------------------
  alpha Z        PSCENC =       106.14253578
  Ewald energy   TEWEN  =     41390.85419692
  -Hartree energ DENC   =    -50291.80052203
  -exchange      EXHF   =       574.74814097
  -V(xc)+E(xc)   XCENC  =       646.39736052
  PAW double counting   =     28237.09857203   -28325.48627040
  entropy T*S    EENTRO =        -0.00000000
  eigenvalues    EBANDS =     -3263.51989025
  atomic energy  EATOM  =     10295.33085592
  ---------------------------------------------------
  free energy    TOTEN  =      -630.23502056 eV

  energy without entropy =     -630.23502056  energy(sigma->0) =     -630.23502056
  exchange ACFDT corr.  =        -0.00000000  see jH, gK, PRB 81, 115126


--------------------------------------------------------------------------------------------------------




--------------------------------------- Iteration      1(  17)  ---------------------------------------


    POTLOK:  cpu time    0.8570: real time    0.8614
    SETDIJ:  cpu time    1.0093: real time    1.0119
    TRIAL :  cpu time  169.1005: real time  169.5962
    CORREC:  cpu time    0.0005: real time    0.0005
    CHARGE:  cpu time    0.7632: real time    0.7652
    --------------------------------------------
      LOOP:  cpu time  171.7326: real time  172.2406

 eigenvalue-minimisations  :     0
 total energy-change (2. order) :-0.9193531E-02  (-0.8456102E-02)
 number of electron     253.0000006 magnetization       3.0000001
 augmentation part       15.4103747 magnetization       2.6687701

 DIPCOR: dipole corrections for dipol
 direction  3 min pos     1,
 dipolmoment           0.007851      0.019268     -0.340665 electrons x Angstroem
 Tr[quadrupol]     -7045.943912

 energy correction for charged system         0.000000 eV
 dipol+quadrupol energy correction           -0.003341 eV
 added-field ion interaction          0.334199 eV  (added to PSCEN)


 Free energy of the ion-electron system (eV)
  ---------------------------------------------------
  alpha Z        PSCENC =       106.14038298
  Ewald energy   TEWEN  =     41390.85419692
  -Hartree energ DENC   =    -50291.79043595
  -exchange      EXHF   =       574.78200576
  -V(xc)+E(xc)   XCENC  =       646.40674221
  PAW double counting   =     28239.07028942   -28327.47631968
  entropy T*S    EENTRO =        -0.00000000
  eigenvalues    EBANDS =     -3263.56193166
  atomic energy  EATOM  =     10295.33085592
  ---------------------------------------------------
  free energy    TOTEN  =      -630.24421409 eV

  energy without entropy =     -630.24421409  energy(sigma->0) =     -630.24421409
[...]
  energy-cutoff  :      500.00
  volume of cell :     3176.88
      direct lattice vectors                 reciprocal lattice vectors
    12.888400000  0.000000000  0.000000000     0.077589150  0.001159676  0.001853713
    -0.183768974 12.295226737  0.000000000     0.000000000  0.081332376  0.004600226
    -0.462020683 -1.133916932 20.047743297     0.000000000  0.000000000  0.049880926

  length of vectors
    12.888400000 12.296600000 20.085100000     0.077619954  0.081462368  0.049880926


 FORCES acting on ions:
    Electron-Ion                     Ewald-Force                    Non-Local-Force
 -----------------------------------------------------------------------------------------------
   0.555E+01 -.850E+01 0.829E+01   -.577E+01 0.880E+01 -.833E+01   0.195E+00 -.263E+00 0.248E-01
   0.489E+01 -.234E+01 0.982E+01   -.484E+01 0.232E+01 -.984E+01   -.436E-01 -.136E-01 0.374E-01
   0.367E+01 -.433E+01 0.105E+02   -.373E+01 0.437E+01 -.105E+02   0.452E-01 -.107E-01 -.122E-01
   0.686E+01 0.583E+00 0.501E+01   -.700E+01 -.528E+00 -.499E+01   0.123E+00 -.865E-01 -.258E-01
   0.663E+01 0.994E+01 0.553E+01   -.668E+01 -.977E+01 -.558E+01   -.132E-01 -.170E+00 0.351E-01
   0.840E+01 0.111E+02 0.116E+02   -.838E+01 -.114E+02 -.117E+02   -.369E-01 0.296E+00 0.464E-01
   0.347E+01 0.104E+02 0.749E+01   -.335E+01 -.106E+02 -.747E+01   -.670E-01 0.103E+00 -.234E-01
   0.182E+02 0.301E+02 0.899E+01   -.182E+02 -.301E+02 -.904E+01   -.202E-02 -.363E-01 0.284E-01
   0.334E+02 0.591E+02 0.204E+02   -.347E+02 -.622E+02 -.204E+02   0.130E+01 0.319E+01 0.169E-01
   0.197E+02 0.106E+02 0.173E+02   -.201E+02 -.108E+02 -.173E+02   0.342E+00 0.167E+00 -.275E-01
   0.180E+02 0.201E+02 0.162E+02   -.182E+02 -.204E+02 -.162E+02   0.164E+00 0.241E+00 0.183E-02
   0.585E+02 -.261E+02 0.417E+02   -.603E+02 0.287E+02 -.420E+02   0.174E+01 -.261E+01 0.269E+00
   0.166E+02 -.740E+01 0.245E+02   -.167E+02 0.777E+01 -.246E+02   0.134E+00 -.304E+00 0.350E-01
   0.342E+02 -.765E+01 0.275E+02   -.346E+02 0.796E+01 -.275E+02   0.462E+00 -.236E+00 0.167E-01
   0.537E+02 -.405E+02 0.396E+02   -.569E+02 0.407E+02 -.399E+02   0.323E+01 -.135E+00 0.278E+00
   0.226E+02 -.286E+02 0.252E+02   -.231E+02 0.289E+02 -.253E+02   0.471E+00 -.298E+00 0.599E-01
   0.879E+01 -.111E+02 0.163E+02   -.887E+01 0.113E+02 -.164E+02   0.498E-01 -.115E+00 0.296E-01
   0.133E+02 -.156E+02 0.227E+02   -.137E+02 0.156E+02 -.227E+02   0.339E+00 -.712E-01 0.724E-02
   0.646E+01 -.260E+02 0.123E+02   -.650E+01 0.264E+02 -.122E+02   0.787E-01 -.412E+00 -.428E-01
   -.682E+01 -.548E+00 0.579E+01   0.696E+01 0.495E+00 -.576E+01   -.127E+00 0.844E-01 -.184E-01
   0.512E+00 0.983E+01 0.689E+01   -.730E+00 -.997E+01 -.693E+01   0.218E+00 0.140E+00 0.380E-01
   -.533E+00 -.988E+01 0.711E+01   0.752E+00 0.100E+02 -.715E+01   -.221E+00 -.145E+00 0.392E-01
   -.555E+01 0.831E+01 0.777E+01   0.577E+01 -.861E+01 -.780E+01   -.203E+00 0.269E+00 0.313E-01
   -.650E+01 0.259E+02 0.106E+02   0.655E+01 -.263E+02 -.106E+02   -.860E-01 0.421E+00 -.434E-01
   0.301E+02 0.612E+02 0.162E+02   -.321E+02 -.638E+02 -.162E+02   0.218E+01 0.277E+01 0.182E-01
   0.650E+01 0.236E+02 0.113E+02   -.659E+01 -.239E+02 -.113E+02   0.111E+00 0.265E+00 0.333E-01
   -.227E+02 0.285E+02 0.207E+02   0.232E+02 -.287E+02 -.207E+02   -.468E+00 0.296E+00 0.558E-01
   -.540E+02 0.405E+02 0.345E+02   0.572E+02 -.406E+02 -.348E+02   -.323E+01 0.137E+00 0.239E+00
   -.585E+02 0.259E+02 0.359E+02   0.603E+02 -.285E+02 -.361E+02   -.174E+01 0.262E+01 0.229E+00
   -.333E+02 -.585E+02 0.199E+02   0.346E+02 0.616E+02 -.199E+02   -.129E+01 -.319E+01 0.272E-01
   -.183E+02 -.297E+02 0.943E+01   0.184E+02 0.297E+02 -.948E+01   0.214E-02 0.210E-01 0.383E-01
   -.660E+01 -.238E+02 0.115E+02   0.670E+01 0.241E+02 -.115E+02   -.120E+00 -.263E+00 0.205E-01
   -.305E+02 -.609E+02 0.162E+02   0.326E+02 0.635E+02 -.162E+02   -.217E+01 -.277E+01 0.509E-02
   -.667E+01 -.976E+01 0.692E+01   0.672E+01 0.960E+01 -.696E+01   0.672E-02 0.172E+00 0.316E-01
   0.243E+01 -.427E+01 0.119E+02   -.245E+01 0.433E+01 -.119E+02   0.195E-01 -.374E-01 0.186E-01
   -.365E+01 0.423E+01 0.909E+01   0.372E+01 -.425E+01 -.908E+01   -.485E-01 0.195E-01 -.123E-01
   -.492E+01 0.241E+01 0.100E+02   0.487E+01 -.238E+01 -.100E+02   0.400E-01 0.122E-01 0.164E-01
   -.242E+01 0.427E+01 0.110E+02   0.244E+01 -.432E+01 -.110E+02   -.216E-01 0.372E-01 0.148E-01
   -.199E+01 0.467E+01 0.120E+02   0.199E+01 -.473E+01 -.120E+02   -.286E-01 0.540E-01 0.151E-01
   -.133E+02 0.156E+02 0.170E+02   0.136E+02 -.156E+02 -.169E+02   -.343E+00 0.670E-01 -.151E-01
   -.870E+01 0.110E+02 0.127E+02   0.878E+01 -.111E+02 -.128E+02   -.481E-01 0.121E+00 0.337E-01
   -.290E+01 0.912E+01 0.129E+02   0.297E+01 -.920E+01 -.130E+02   -.538E-01 0.903E-01 0.376E-01
   -.448E+01 0.845E+01 0.144E+02   0.454E+01 -.848E+01 -.144E+02   -.305E-01 0.341E-01 -.853E-02
   -.340E+02 0.758E+01 0.230E+02   0.344E+02 -.787E+01 -.230E+02   -.460E+00 0.236E+00 0.587E-03
   -.164E+02 0.739E+01 0.189E+02   0.166E+02 -.777E+01 -.190E+02   -.132E+00 0.296E+00 0.349E-01
   0.432E+01 0.430E+00 0.149E+02   -.442E+01 -.441E+00 -.150E+02   0.163E+00 -.438E-01 0.892E-02
   -.407E+01 -.460E+00 0.164E+02   0.417E+01 0.482E+00 -.165E+02   -.157E+00 0.462E-01 0.228E-02
   -.176E+02 -.198E+02 0.189E+02   0.178E+02 0.201E+02 -.189E+02   -.166E+00 -.245E+00 0.399E-01
   -.193E+02 -.106E+02 0.179E+02   0.197E+02 0.107E+02 -.179E+02   -.334E+00 -.167E+00 -.120E-01
   0.464E+01 -.835E+01 0.194E+02   -.470E+01 0.838E+01 -.194E+02   0.378E-01 -.338E-01 0.130E-01
   0.307E+01 -.906E+01 0.173E+02   -.313E+01 0.914E+01 -.173E+02   0.551E-01 -.917E-01 0.348E-01
   -.340E+01 -.103E+02 0.100E+02   0.329E+01 0.104E+02 -.100E+02   0.689E-01 -.102E+00 -.385E-02
   -.819E+01 -.109E+02 0.154E+02   0.816E+01 0.112E+02 -.155E+02   0.324E-01 -.303E+00 0.486E-01
   0.206E+01 -.470E+01 0.151E+02   -.205E+01 0.477E+01 -.152E+02   0.275E-01 -.501E-01 0.121E-01
   0.288E+02 0.437E+02 0.476E+02   -.870E+01 -.428E+02 -.468E+02   -.190E+02 -.876E+00 -.618E+00
   0.234E+02 0.465E+02 0.374E+02   -.332E+02 -.285E+02 -.365E+02   0.930E+01 -.171E+02 -.742E+00
   -.292E+02 -.433E+02 0.422E+02   0.911E+01 0.425E+02 -.414E+02   0.190E+02 0.877E+00 -.733E+00
   -.244E+02 -.466E+02 0.391E+02   0.343E+02 0.286E+02 -.382E+02   -.929E+01 0.171E+02 -.829E+00
   -.205E+01 0.792E-01 0.380E+02   0.210E+01 -.737E-01 -.392E+02   -.519E-03 -.332E-02 -.109E+01
   0.239E+01 -.106E+01 -.106E+04   -.229E+01 0.105E+01 0.105E+04   -.106E+00 0.115E-01 0.828E+01
 -----------------------------------------------------------------------------------------------
   0.204E+00 0.235E+00 -.583E+01   0.421E-12 -.497E-13 0.227E-12   -.109E+00 -.675E-02 0.605E+01
 
 
 POSITION                                       TOTAL-FORCE (eV/Angst)
 -----------------------------------------------------------------------------------
      2.64229     -0.52935      9.99252        -0.015616      0.022086     -0.009664
      0.49758      0.68626      9.96822         0.012421     -0.049457      0.017003
      1.21161     -0.54222      9.96684        -0.021778      0.026670     -0.003460
      3.35878      0.70796     10.01593        -0.006408     -0.044246     -0.004206
      2.65594      1.96443     10.02203        -0.065366     -0.021026     -0.010499
      0.48144      3.14689      9.97682        -0.016973      0.020817      0.006871
      1.21911      1.92743      9.99101         0.045014     -0.012740     -0.006040
      3.37461      3.22563     10.05359        -0.018791     -0.042148     -0.015999
      2.61199      4.46290     10.03835         0.092263      0.277007      0.033113
      0.39686      5.59788      9.96283        -0.051641      0.000952     -0.009557
      1.17254      4.39603      9.98832        -0.043558     -0.048850     -0.021164
      2.46568      6.85492      9.99338         0.023269     -0.103085      0.059243
      0.33058      8.06856      9.92895         0.016413      0.057520      0.020284
      1.06331      6.84678      9.95136         0.097252      0.048564      0.011128
      3.16345      8.09269     10.00335         0.163136      0.011577      0.051804
      2.44869      9.30766      9.96763        -0.011725     -0.054716      0.018201
      0.30597     10.52207      9.94133        -0.029620     -0.000103      0.012006
      1.02641      9.29945      9.93724        -0.030628     -0.051655      0.006992
      3.17313     10.52827      9.99612         0.030463     -0.030548     -0.005555
      6.74490     11.67124     10.01389        -0.002321      0.036498      0.002681
      4.78602      0.67078     10.02103         0.005954      0.012398     -0.003861
      5.31770     11.70851     10.01911        -0.010421     -0.016824      0.003158
      7.64532      0.61285      9.99848         0.007360     -0.012372     -0.004156
      6.93059      1.85038     10.00805        -0.038372      0.042018     -0.007961
      4.82164      3.18672     10.06255         0.212609      0.260615      0.020462
      5.50462      1.90696     10.02728         0.031131     -0.067897     -0.001323
      7.65457      3.07133      9.99041         0.017890      0.050268      0.009391
      6.93949      4.28621     10.02421        -0.168952     -0.010519      0.042023
      7.63714      5.52365     10.01440        -0.034839      0.137530      0.042918
      7.49062      7.91666     10.03854        -0.093210     -0.294841      0.026111
      6.72833      9.15436     10.04897         0.018085      0.010579     -0.011330
      4.59902     10.47216     10.02150        -0.042129      0.074350     -0.014214
      5.28125      9.19271     10.05692        -0.205610     -0.265188      0.007814
      7.44752     10.41472     10.01523         0.056343      0.028881     -0.003486
     11.04148     11.71972      9.95007         0.010917      0.012556      0.007074
      9.07582      0.62557      9.97556         0.019527     -0.011551     -0.001252
      9.60595     11.69274      9.96638        -0.011982      0.038863     -0.001256
     11.95039      0.65925      9.95512        -0.009253     -0.015324      0.002143
     11.22570      1.88096      9.95496        -0.036526     -0.013468      0.010508
      9.07696      3.07959      9.96461         0.022885      0.040965     -0.006929
      9.79737      1.85669      9.96094         0.031173      0.011059      0.008805
     11.93600      3.11982      9.95729         0.001945      0.012128      0.015654
     11.19172      4.33362      9.95243         0.032986      0.008385     -0.007194
      9.03937      5.53196      9.97050        -0.101030     -0.038804     -0.001705
      9.77225      4.31055      9.95528        -0.017745     -0.070105      0.013178
     11.86848      5.57821      9.95094         0.069061     -0.067728     -0.009258
     11.12222      6.80069      9.94453        -0.062518      0.073785     -0.014785
      8.93013      7.98327      9.97915         0.035017      0.044900      0.007353
      9.70547      6.78105      9.96259         0.056140      0.004761      0.009058
     11.79912      8.04536      9.93034        -0.019646     -0.012187      0.015761
     11.05520      9.25933      9.93593         0.002186     -0.016317      0.018099
      8.88401     10.45164      9.98013        -0.035744      0.014208      0.012121
      9.62155      9.23244      9.96011         0.006481     -0.035450      0.017661
     11.76598     10.49788      9.93779         0.034467      0.020885      0.006635
      3.22713      5.70261     10.07122        -0.590333     -0.095503      0.111377
      5.56486      4.35417     10.09957         0.256590     -0.588249      0.113540
      6.87513      6.67693     10.08325         0.602186      0.096969      0.092303
      4.53740      8.02524     10.09011        -0.254196      0.588201      0.098409
      5.04964      6.19007     10.30727         0.038132     -0.001288     -1.776603
      5.02901      6.19276     12.46172        -0.002365      0.006194      1.000577
 -----------------------------------------------------------------------------------
    total drift:                                0.092382      0.227938      0.033928


--------------------------------------------------------------------------------------------------------



  FREE ENERGIE OF THE ION-ELECTRON SYSTEM (eV)
  ---------------------------------------------------
  free  energy   TOTEN  =      -630.32428787 eV

  energy  without entropy=     -630.32428787  energy(sigma->0) =     -630.32428787
 


--------------------------------------------------------------------------------------------------------


    POTLOK:  cpu time    1.8393: real time    1.8452


--------------------------------------------------------------------------------------------------------


 stress matrix after NEB project (eV)
    -40.60608     -3.37188      0.00785
     -3.37229    -39.72842     -0.00203
      0.00758     -0.00200      1.55046
  FORCES: max atom, RMS     1.777013    0.326472
  FORCE total and by dimension    2.528844    1.776603
  Stress total and by dimension   57.029355   40.606079
 writing wavefunctions
     LOOP+:  cpu time11757.2902: real time11799.3517
 vacuum level on the upper side and lower side of the slab         1.346         1.668
    4ORBIT:  cpu time    0.0000: real time    0.0000
 


 total charge     
 
# of ion       s       p       d       tot
------------------------------------------
    1        0.864   1.767   0.000   2.632
    2        0.865   1.762   0.000   2.627
    3        0.866   1.776   0.000   2.642
    4        0.864   1.761   0.000   2.624
    5        0.858   1.735   0.000   2.593
    6        0.866   1.766   0.000   2.632
    7        0.862   1.763   0.000   2.626
    8        0.849   1.746   0.000   2.595
    9        0.852   1.705   0.000   2.558
   10        0.870   1.782   0.000   2.652
   11        0.864   1.765   0.000   2.628
   12        0.868   1.773   0.000   2.641
   13        0.869   1.791   0.000   2.660
   14        0.874   1.800   0.000   2.674
   15        0.868   1.770   0.000   2.638
   16        0.872   1.795   0.000   2.667
   17        0.867   1.775   0.000   2.643
   18        0.870   1.792   0.000   2.662
   19        0.869   1.771   0.000   2.640
   20        0.864   1.761   0.000   2.625
   21        0.862   1.756   0.000   2.618
   22        0.862   1.756   0.000   2.618
   23        0.864   1.768   0.000   2.632
   24        0.869   1.771   0.000   2.640
   25        0.852   1.704   0.000   2.557
   26        0.862   1.760   0.000   2.622
   27        0.872   1.795   0.000   2.667
   28        0.868   1.770   0.000   2.639
   29        0.868   1.773   0.000   2.640
   30        0.852   1.704   0.000   2.557
   31        0.849   1.746   0.000   2.595
   32        0.862   1.760   0.000   2.622
   33        0.852   1.705   0.000   2.557
   34        0.858   1.735   0.000   2.594
   35        0.865   1.768   0.000   2.633
   36        0.866   1.776   0.000   2.643
   37        0.865   1.762   0.000   2.627
   38        0.865   1.768   0.000   2.633
   39        0.868   1.774   0.000   2.642
   40        0.870   1.792   0.000   2.662
   41        0.867   1.775   0.000   2.643
   42        0.866   1.769   0.000   2.635
   43        0.871   1.783   0.000   2.654
   44        0.874   1.800   0.000   2.674
   45        0.869   1.792   0.000   2.661
   46        0.868   1.787   0.000   2.655
   47        0.868   1.787   0.000   2.654
   48        0.863   1.764   0.000   2.628
   49        0.870   1.782   0.000   2.652
   50        0.871   1.782   0.000   2.653
   51        0.866   1.769   0.000   2.635
   52        0.862   1.764   0.000   2.626
   53        0.866   1.766   0.000   2.632
   54        0.868   1.774   0.000   2.642
   55        1.232   2.663   0.000   3.895
   56        1.234   2.658   0.000   3.892
   57        1.232   2.662   0.000   3.894
   58        1.234   2.658   0.000   3.892
   59        0.496   0.695   6.426   7.618
   60        0.451   0.072   7.362   7.886
--------------------------------------------------
tot         52.582 106.803  13.789 173.173
 


 magnetization (x)
 
# of ion       s       p       d       tot
------------------------------------------
    1        0.000   0.001   0.000   0.001
    2        0.000  -0.000   0.000  -0.000
    3       -0.000  -0.002   0.000  -0.002
    4       -0.000  -0.001   0.000  -0.001
    5        0.000   0.001   0.000   0.001
    6       -0.000  -0.001   0.000  -0.001
    7       -0.000  -0.002   0.000  -0.002
    8       -0.000  -0.003   0.000  -0.003
    9       -0.000  -0.005   0.000  -0.005
   10       -0.000  -0.003   0.000  -0.003
   11        0.000   0.001   0.000   0.001
   12        0.000   0.002   0.000   0.002
   13        0.000   0.001   0.000   0.001
   14       -0.000  -0.001   0.000  -0.002
   15       -0.000  -0.002   0.000  -0.002
   16       -0.000  -0.000   0.000  -0.000
   17        0.000   0.000   0.000   0.000
   18       -0.000  -0.001   0.000  -0.002
   19       -0.000  -0.003   0.000  -0.003
   20       -0.000  -0.001   0.000  -0.001
   21       -0.000  -0.001   0.000  -0.001
   22       -0.000  -0.001   0.000  -0.001
   23        0.000   0.001   0.000   0.001
   24       -0.000  -0.003   0.000  -0.003
   25       -0.000  -0.006   0.000  -0.007
   26        0.000   0.001   0.000   0.002
   27       -0.000  -0.000   0.000  -0.000
   28       -0.000  -0.002   0.000  -0.003
   29        0.000   0.002   0.000   0.002
   30       -0.000  -0.005   0.000  -0.005
   31       -0.000  -0.003   0.000  -0.003
   32        0.000   0.001   0.000   0.001
   33       -0.000  -0.006   0.000  -0.007
   34        0.000   0.001   0.000   0.001
   35        0.000  -0.000   0.000  -0.000
   36       -0.000  -0.002   0.000  -0.002
   37        0.000  -0.000   0.000  -0.000
   38        0.000  -0.000   0.000   0.000
   39       -0.000  -0.001   0.000  -0.001
   40       -0.000  -0.001   0.000  -0.002
   41        0.000   0.000   0.000   0.000
   42        0.000  -0.000   0.000  -0.000
   43       -0.000  -0.002   0.000  -0.002
   44       -0.000  -0.001   0.000  -0.002
   45        0.000   0.001   0.000   0.001
   46        0.000  -0.000   0.000  -0.000
   47        0.000  -0.000   0.000  -0.000
   48        0.000   0.001   0.000   0.001
   49       -0.000  -0.003   0.000  -0.003
   50       -0.000  -0.002   0.000  -0.002
   51        0.000  -0.000   0.000  -0.000
   52       -0.000  -0.002   0.000  -0.002
   53       -0.000  -0.001   0.000  -0.001
   54       -0.000  -0.001   0.000  -0.001
   55       -0.004  -0.025   0.000  -0.029
   56       -0.004  -0.019   0.000  -0.023
   57       -0.004  -0.025   0.000  -0.029
   58       -0.004  -0.019   0.000  -0.022
   59        0.006   0.004   1.390   1.400
   60       -0.128   0.006   2.085   1.962
--------------------------------------------------
tot         -0.140  -0.136   3.475   3.199
 

 total amount of memory used by VASP MPI-rank0   155771. kBytes
=======================================================================

   base      :      30000. kBytes
   nonl-proj :       4321. kBytes
   fftplans  :      11188. kBytes
   grid      :      29312. kBytes
   one-center:         62. kBytes
   HF        :         23. kBytes
   nonlr-proj:      17613. kBytes
   wavefun   :      63252. kBytes
 
  
  
 General timing and accounting informations for this job:
 ========================================================
  
                  Total CPU time used (sec):    11808.340
                            User time (sec):    11764.466
                          System time (sec):       43.874
                         Elapsed time (sec):    11857.858
  
                   Maximum memory used (kb):      395896.
                   Average memory used (kb):           0.
  
                          Minor page faults:      1303961
                          Major page faults:            0
                 Voluntary context switches:       223800
