 vasp.5.4.4.18Apr17-6-g9f103f2a35 (build Feb 25 2019 10:51:38) complex          
  
 executed on             LinuxIFC date 2021.08.09  10:26:30
 running on   32 total cores
 distrk:  each k-point on   32 cores,    1 groups
 distr:  one band on NCORES_PER_BAND=  32 cores,    1 groups


--------------------------------------------------------------------------------------------------------


 INCAR:
 POTCAR:    PAW_PBE C 08Apr2002                   
 POTCAR:    PAW_PBE N 08Apr2002                   
 POTCAR:    PAW_PBE Fe 06Sep2000                  

 ----------------------------------------------------------------------------- 
|                                                                             |
|           W    W    AA    RRRRR   N    N  II  N    N   GGGG   !!!           |
|           W    W   A  A   R    R  NN   N  II  NN   N  G    G  !!!           |
|           W    W  A    A  R    R  N N  N  II  N N  N  G       !!!           |
|           W WW W  AAAAAA  RRRRR   N  N N  II  N  N N  G  GGG   !            |
|           WW  WW  A    A  R   R   N   NN  II  N   NN  G    G                |
|           W    W  A    A  R    R  N    N  II  N    N   GGGG   !!!           |
|                                                                             |
|      For optimal performance we recommend to set                            |
|        NCORE= 4 - approx SQRT( number of cores)                             |
|      NCORE specifies how many cores store one orbital (NPAR=cpu/NCORE).     |
|      This setting can  greatly improve the performance of VASP for DFT.     |
|      The default,   NCORE=1            might be grossly inefficient         |
|      on modern multi-core architectures or massively parallel machines.     |
|      Do your own testing !!!!                                               |
|      Unfortunately you need to use the default for GW and RPA calculations. |
|      (for HF NCORE is supported but not extensively tested yet)             |
|                                                                             |
 ----------------------------------------------------------------------------- 

 POTCAR:    PAW_PBE C 08Apr2002                   
   VRHFIN =C: s2p2                                                              
   LEXCH  = PE                                                                  
   EATOM  =   147.1560 eV,   10.8157 Ry                                         
                                                                                
   TITEL  = PAW_PBE C 08Apr2002                                                 
   LULTRA =        F    use ultrasoft PP ?                                      
   IUNSCR =        1    unscreen: 0-lin 1-nonlin 2-no                           
   RPACOR =    1.200    partial core radius                                     
   POMASS =   12.011; ZVAL   =    4.000    mass and valenz                      
   RCORE  =    1.500    outmost cutoff radius                                   
   RWIGS  =    1.630; RWIGS  =    0.863    wigner-seitz radius (au A)           
   ENMAX  =  400.000; ENMIN  =  300.000 eV                                      
   ICORE  =        2    local potential                                         
   LCOR   =        T    correct aug charges                                     
   LPAW   =        T    paw PP                                                  
   EAUG   =  644.873                                                            
   DEXC   =    0.000                                                            
   RMAX   =    1.529    core radius for proj-oper                               
   RAUG   =    1.300    factor for augmentation sphere                          
   RDEP   =    1.501    radius for radial grids                                 
   RDEPT  =    1.300    core radius for aug-charge                              
                                                                                
   Atomic configuration                                                         
    4 entries                                                                   
     n  l   j            E        occ.                                          
     1  0  0.50      -273.3789   2.0000                                         
     2  0  0.50       -13.7508   2.0000                                         
     2  1  0.50        -5.2854   2.0000                                         
     3  2  1.50        -5.4423   0.0000                                         
   Description                                                                  
     l       E           TYP  RCUT    TYP  RCUT                                 
     0    -13.7508458     23  1.200                                             
     0     -8.2022199     23  1.200                                             
     1     -5.2854383     23  1.500                                             
     1     34.0145650     23  1.500                                             
     2     -5.4423304      7  1.500                                             
  local pseudopotential read in
  partial core-charges read in
  partial kinetic energy density read in
  atomic valenz-charges read in
  non local Contribution for L=           0  read in
    real space projection operators read in
  non local Contribution for L=           0  read in
    real space projection operators read in
  non local Contribution for L=           1  read in
    real space projection operators read in
  non local Contribution for L=           1  read in
    real space projection operators read in
    PAW grid and wavefunctions read in
 
   number of l-projection  operators is LMAX  =           4
   number of lm-projection operators is LMMAX =           8
 
 POTCAR:    PAW_PBE N 08Apr2002                   
   VRHFIN =N: s2p3                                                              
   LEXCH  = PE                                                                  
   EATOM  =   264.5486 eV,   19.4438 Ry                                         
                                                                                
   TITEL  = PAW_PBE N 08Apr2002                                                 
   LULTRA =        F    use ultrasoft PP ?                                      
   IUNSCR =        1    unscreen: 0-lin 1-nonlin 2-no                           
   RPACOR =    1.200    partial core radius                                     
   POMASS =   14.001; ZVAL   =    5.000    mass and valenz                      
   RCORE  =    1.500    outmost cutoff radius                                   
   RWIGS  =    1.400; RWIGS  =    0.741    wigner-seitz radius (au A)           
   ENMAX  =  400.000; ENMIN  =  300.000 eV                                      
   ICORE  =        2    local potential                                         
   LCOR   =        T    correct aug charges                                     
   LPAW   =        T    paw PP                                                  
   EAUG   =  627.112                                                            
   DEXC   =    0.000                                                            
   RMAX   =    1.529    core radius for proj-oper                               
   RAUG   =    1.300    factor for augmentation sphere                          
   RDEP   =    1.514    radius for radial grids                                 
   RDEPT  =    1.338    core radius for aug-charge                              
                                                                                
   Atomic configuration                                                         
    4 entries                                                                   
     n  l   j            E        occ.                                          
     1  0  0.50      -384.7179   2.0000                                         
     2  0  0.50       -18.5828   2.0000                                         
     2  1  0.50        -7.0898   3.0000                                         
     3  2  1.50        -6.8029   0.0000                                         
   Description                                                                  
     l       E           TYP  RCUT    TYP  RCUT                                 
     0    -18.5828119     23  1.200                                             
     0    -13.5018863     23  1.200                                             
     1     -7.0897853     23  1.500                                             
     1      9.5240782     23  1.500                                             
     2     -6.8029130      7  1.500                                             
  local pseudopotential read in
  partial core-charges read in
  partial kinetic energy density read in
  atomic valenz-charges read in
  non local Contribution for L=           0  read in
    real space projection operators read in
  non local Contribution for L=           0  read in
    real space projection operators read in
  non local Contribution for L=           1  read in
    real space projection operators read in
  non local Contribution for L=           1  read in
    real space projection operators read in
    PAW grid and wavefunctions read in
 
   number of l-projection  operators is LMAX  =           4
   number of lm-projection operators is LMMAX =           8
 
 POTCAR:    PAW_PBE Fe 06Sep2000                  
   VRHFIN =Fe:  d7 s1                                                           
   LEXCH  = PE                                                                  
   EATOM  =   594.3153 eV,   43.6809 Ry                                         
                                                                                
   TITEL  = PAW_PBE Fe 06Sep2000                                                
   LULTRA =        F    use ultrasoft PP ?                                      
   IUNSCR =        1    unscreen: 0-lin 1-nonlin 2-no                           
   RPACOR =    2.000    partial core radius                                     
   POMASS =   55.847; ZVAL   =    8.000    mass and valenz                      
   RCORE  =    2.300    outmost cutoff radius                                   
   RWIGS  =    2.460; RWIGS  =    1.302    wigner-seitz radius (au A)           
   ENMAX  =  267.882; ENMIN  =  200.911 eV                                      
   RCLOC  =    1.701    cutoff for local pot                                    
   LCOR   =        T    correct aug charges                                     
   LPAW   =        T    paw PP                                                  
   EAUG   =  511.368                                                            
   DEXC   =    0.000                                                            
   RMAX   =    2.356    core radius for proj-oper                               
   RAUG   =    1.300    factor for augmentation sphere                          
   RDEP   =    2.442    radius for radial grids                                 
   RDEPT  =    1.890    core radius for aug-charge                              
                                                                                
   Atomic configuration                                                         
    9 entries                                                                   
     n  l   j            E        occ.                                          
     1  0  0.50     -6993.8440   2.0000                                         
     2  0  0.50      -814.6047   2.0000                                         
     2  1  1.50      -693.3689   6.0000                                         
     3  0  0.50       -89.4732   2.0000                                         
     3  1  1.50       -55.6373   6.0000                                         
     3  2  2.50        -3.8151   7.0000                                         
     4  0  0.50        -4.2551   1.0000                                         
     4  1  1.50        -3.4015   0.0000                                         
     4  3  2.50        -1.3606   0.0000                                         
   Description                                                                  
     l       E           TYP  RCUT    TYP  RCUT                                 
     2     -3.8151135     23  2.300                                             
     2     -5.1756961     23  2.300                                             
     0     -4.2550963     23  2.300                                             
     0      7.2035603     23  2.300                                             
     1     -2.7211652     23  2.300                                             
     1     18.4316424     23  2.300                                             
  local pseudopotential read in
  partial core-charges read in
  partial kinetic energy density read in
  atomic valenz-charges read in
  non local Contribution for L=           2  read in
    real space projection operators read in
  non local Contribution for L=           2  read in
    real space projection operators read in
  non local Contribution for L=           0  read in
    real space projection operators read in
  non local Contribution for L=           0  read in
    real space projection operators read in
  non local Contribution for L=           1  read in
    real space projection operators read in
  non local Contribution for L=           1  read in
    real space projection operators read in
    PAW grid and wavefunctions read in
 
   number of l-projection  operators is LMAX  =           6
   number of lm-projection operators is LMMAX =          18
 

 ----------------------------------------------------------------------------- 
|                                                                             |
|  ADVICE TO THIS USER RUNNING 'VASP/VAMP'   (HEAR YOUR MASTER'S VOICE ...):  |
|                                                                             |
|      You have a (more or less) 'large supercell' and for larger cells       |
|      it might be more efficient to use real space projection opertators     |
|      So try LREAL= Auto  in the INCAR   file.                               |
|      Mind:          For very  accurate calculation you might also keep the  |
|      reciprocal projection scheme          (i.e. LREAL=.FALSE.)             |
|                                                                             |
 ----------------------------------------------------------------------------- 

  PAW_PBE C 08Apr2002                   :
 energy of atom  1       EATOM= -147.1560
 kinetic energy error for atom=    0.0076 (will be added to EATOM!!)
  PAW_PBE N 08Apr2002                   :
 energy of atom  2       EATOM= -264.5486
 kinetic energy error for atom=    0.0138 (will be added to EATOM!!)
  PAW_PBE Fe 06Sep2000                  :
 energy of atom  3       EATOM= -594.3153
 kinetic energy error for atom=    0.0026 (will be added to EATOM!!)
 
 
 POSCAR:  C  N Fe                                
  positions in cartesian coordinates
  No initial velocities read in
 exchange correlation table for  LEXCH =        8
   RHO(1)=    0.500       N(1)  =     2000
   RHO(2)=  100.500       N(2)  =     4000

 VTST: version 3.2, (02/03/18)

 CHAIN: initializing optimizer
 
 OPT: Using VASP Conjugate-Gradient optimizer
 CHAIN: Read ICHAIN            0
 
 POSCAR:  C  N Fe                                
  positions in cartesian coordinates
  No initial velocities read in
 


--------------------------------------------------------------------------------------------------------


 ion  position               nearest neighbor table
   1  0.225  1.000  0.500-   4 1.45  18 1.45   3 1.47
   2  0.056  0.099  0.500-   7 1.43   3 1.43  33 1.45
   3  0.113  1.000  0.500-   2 1.43  16 1.43   1 1.47
   4  0.280  0.102  0.500-   1 1.45   5 1.45  20 1.47
   5  0.222  0.202  0.500-  50 1.43   7 1.45   4 1.45
   6  0.052  0.298  0.500-  10 1.41  37 1.43   7 1.44
   7  0.111  0.200  0.500-   2 1.43   6 1.44   5 1.45
   8  0.210  0.399  0.500-  10 1.41  50 1.41  11 1.43
   9  0.048  0.500  0.500-  41 1.41  14 1.43  10 1.43
  10  0.102  0.399  0.500-   8 1.41   6 1.41   9 1.43
  11  0.262  0.500  0.499-  56 1.32   8 1.43  12 1.43
  12  0.209  0.601  0.500-  14 1.41  51 1.41  11 1.43
  13  0.051  0.702  0.500-  14 1.41  45 1.43  17 1.44
  14  0.102  0.601  0.500-  12 1.41  13 1.41   9 1.43
  15  0.221  0.798  0.500-  51 1.43  17 1.45  18 1.46
  16  0.056  0.901  0.500-  17 1.43   3 1.43  49 1.45
  17  0.110  0.800  0.500-  16 1.43  13 1.44  15 1.45
  18  0.280  0.898  0.500-   1 1.45  15 1.46  28 1.47
  19  0.557  0.000  0.500-  22 1.43  29 1.43  21 1.45
  20  0.392  0.103  0.500-  52 1.44  21 1.45   4 1.47
  21  0.446  0.000  0.500-  19 1.45  20 1.45  28 1.45
  22  0.614  0.100  0.500-  23 1.43  19 1.43  31 1.44
  23  0.559  0.200  0.500-  52 1.43  22 1.43  24 1.46
  24  0.616  0.302  0.500-  55 1.37  35 1.42  23 1.46
  25  0.613  0.498  0.500-  55 1.40  53 1.44  39 1.44
  26  0.616  0.698  0.500-  53 1.42  43 1.42  27 1.47
  27  0.560  0.801  0.500-  29 1.42  54 1.43  26 1.47
  28  0.392  0.897  0.500-  54 1.44  21 1.45  18 1.47
  29  0.614  0.901  0.500-  27 1.42  19 1.43  47 1.44
  30  0.890  0.000  0.500-  33 1.42  49 1.43  32 1.45
  31  0.724  0.099  0.500-  36 1.43  32 1.43  22 1.44
  32  0.780  0.000  0.500-  47 1.42  31 1.43  30 1.45
  33  0.946  0.099  0.500-  30 1.42  34 1.43   2 1.45
  34  0.889  0.198  0.500-  37 1.42  36 1.43  33 1.43
  35  0.725  0.299  0.500-  40 1.42  24 1.42  36 1.43
  36  0.779  0.199  0.500-  31 1.43  35 1.43  34 1.43
  37  0.942  0.299  0.500-  34 1.42   6 1.43  38 1.43
  38  0.888  0.399  0.500-  40 1.42  41 1.43  37 1.43
  39  0.723  0.499  0.500-  40 1.43  44 1.43  25 1.44
  40  0.779  0.400  0.500-  35 1.42  38 1.42  39 1.43
  41  0.941  0.500  0.500-   9 1.41  38 1.43  42 1.43
  42  0.887  0.601  0.500-  44 1.43  41 1.43  45 1.43
  43  0.725  0.700  0.500-  44 1.42  26 1.42  48 1.43
  44  0.778  0.600  0.500-  43 1.42  42 1.43  39 1.43
  45  0.942  0.701  0.500-  46 1.42  13 1.43  42 1.43
  46  0.888  0.801  0.500-  45 1.42  48 1.43  49 1.43
  47  0.724  0.901  0.500-  32 1.42  48 1.43  29 1.44
  48  0.779  0.801  0.500-  46 1.43  47 1.43  43 1.43
  49  0.946  0.901  0.500-  30 1.43  46 1.43  16 1.45
  50  0.272  0.305  0.499-   8 1.41   5 1.43  57 1.95
  51  0.271  0.695  0.500-  12 1.41  15 1.43  58 1.98
  52  0.450  0.201  0.499-  23 1.43  20 1.44  57 1.93
  53  0.559  0.600  0.499-  26 1.42  25 1.44  58 1.98
  54  0.451  0.799  0.500-  27 1.43  28 1.44  58 1.94
  55  0.563  0.397  0.499-  24 1.37  25 1.40  57 2.03
  56  0.363  0.500  0.498-  11 1.32  57 1.93  58 1.93
  57  0.413  0.353  0.499-  56 1.93  52 1.93  50 1.95  55 2.03
  58  0.415  0.646  0.499-  56 1.93  54 1.94  51 1.98  53 1.98
 
  LATTYP: Found a triclinic cell.
 ALAT       =    13.0830433693
 B/A-ratio  =     1.8061434123
 C/A-ratio  =     0.9434614126
 COS(alpha) =     0.0001406252
 COS(beta)  =     0.0006233267
 COS(gamma) =     0.5539900249
  
  Lattice vectors:
  
 A1 = (  13.0830427869,  -0.0038935772,  -0.0002855633)
 A2 = (  13.0911326848,   0.0003108888,  19.6721167786)
 A3 = (   0.0040204895, -12.3433459172,  -0.0003954333)


Analysis of symmetry for initial positions (statically):
=====================================================================
 Subroutine PRICEL returns:
 Original cell was already a primitive cell.
 

 Routine SETGRP: Setting up the symmetry group for a 
 triclinic supercell.


 Subroutine GETGRP returns: Found  1 space group operations
 (whereof  1 operations were pure point group operations)
 out of a pool of  2 trial point group operations.


The static configuration has the point symmetry C_1 .


Analysis of symmetry for dynamics (positions and initial velocities):
=====================================================================
 Subroutine PRICEL returns:
 Original cell was already a primitive cell.
 

 Routine SETGRP: Setting up the symmetry group for a 
 triclinic supercell.


 Subroutine GETGRP returns: Found  1 space group operations
 (whereof  1 operations were pure point group operations)
 out of a pool of  2 trial point group operations.


The dynamic configuration has the point symmetry C_1 .


Analysis of structural, dynamic, and magnetic symmetry:
=====================================================================
 Subroutine PRICEL returns:
 Original cell was already a primitive cell.
 

 Routine SETGRP: Setting up the symmetry group for a 
 triclinic supercell.


 Subroutine GETGRP returns: Found  1 space group operations
 (whereof  1 operations were pure point group operations)
 out of a pool of  2 trial point group operations.


The magnetic configuration has the point symmetry C_1 .


 Subroutine INISYM returns: Found  1 space group operations
 (whereof  1 operations are pure point group operations),
 and found     1 'primitive' translations

 
 
 KPOINTS: KPOINTS created by Atomic Simulation Env

Automatic generation of k-mesh.
Space group operators:
 irot       det(A)        alpha          n_x          n_y          n_z        tau_x        tau_y        tau_z
    1     1.000000     0.000000     1.000000     0.000000     0.000000     0.000000     0.000000     0.000000
 
 Subroutine IBZKPT returns following result:
 ===========================================
 
 Found      2 irreducible k-points:
 
 Following reciprocal coordinates:
            Coordinates               Weight
  0.250000  0.250000  0.000000      2.000000
 -0.250000  0.250000  0.000000      2.000000
 
 Following cartesian coordinates:
            Coordinates               Weight
  0.019115  0.020260 -0.000012      2.000000
 -0.019103  0.020248  0.000004      2.000000
 
 
 Subroutine IBZKPT_HF returns following result:
 ==============================================
 
 Found      4 k-points in 1st BZ
 the following      4 k-points will be used (e.g. in the exchange kernel)
 Following reciprocal coordinates:   # in IRBZ
  0.250000  0.250000  0.000000    0.25000000   1 t-inv F
 -0.250000  0.250000  0.000000    0.25000000   2 t-inv F
 -0.250000 -0.250000 -0.000000    0.25000000   1 t-inv T
  0.250000 -0.250000 -0.000000    0.25000000   2 t-inv T


--------------------------------------------------------------------------------------------------------




 Dimension of arrays:
   k-points           NKPTS =      2   k-points in BZ     NKDIM =      4   number of bands    NBANDS=    155
   number of dos      NEDOS =    301   number of ions     NIONS =     58
   non local maximal  LDIM  =      6   non local SUM 2l+1 LMDIM =     18
   total plane-waves  NPLWV = ******
   max r-space proj   IRMAX =      1   max aug-charges    IRDMAX=  14149
   dimension x,y,z NGX =    96 NGY =   90 NGZ =  144
   dimension x,y,z NGXF=   192 NGYF=  180 NGZF=  288
   support grid    NGXF=   192 NGYF=  180 NGZF=  288
   ions per type =              54   2   2
   NGX,Y,Z   is equivalent  to a cutoff of  12.20, 12.12, 12.17 a.u.
   NGXF,Y,Z  is equivalent  to a cutoff of  24.40, 24.24, 24.34 a.u.

 SYSTEM =  unknown system                          
 POSCAR =   C  N Fe                                

 Startparameter for this run:
   NWRITE =      2    write-flag & timer
   PREC   = accura    normal or accurate (medium, high low for compatibility)
   ISTART =      1    job   : 0-new  1-cont  2-samecut
   ICHARG =      0    charge: 1-file 2-atom 10-const
   ISPIN  =      2    spin polarized calculation?
   LNONCOLLINEAR =      F non collinear calculations
   LSORBIT =      F    spin-orbit coupling
   INIWAV =      1    electr: 0-lowe 1-rand  2-diag
   LASPH  =      T    aspherical Exc in radial PAW
   METAGGA=      F    non-selfconsistent MetaGGA calc.

 Electronic Relaxation 1
   ENCUT  =  500.0 eV  36.75 Ry    6.06 a.u.  23.85 22.50 35.87*2*pi/ulx,y,z
   ENINI  =  500.0     initial cutoff
   ENAUG  =  644.9 eV  augmentation charge cutoff
   NELM   =    250;   NELMIN=  2; NELMDL=  0     # of ELM steps 
   EDIFF  = 0.1E-03   stopping-criterion for ELM
   LREAL  =      F    real-space projection
   NLSPLINE    = F    spline interpolate recip. space projectors
   LCOMPAT=      F    compatible to vasp.4.4
   GGA_COMPAT  = T    GGA compatible to vasp.4.4-vasp.4.6
   LMAXPAW     = -100 max onsite density
   LMAXMIX     =    2 max onsite mixed and CHGCAR
   VOSKOWN=      0    Vosko Wilk Nusair interpolation
   ROPT   =    0.00000   0.00000   0.00000
 Ionic relaxation
   EDIFFG = -.3E-01   stopping-criterion for IOM
   NSW    =      0    number of steps for IOM
   NBLOCK =      1;   KBLOCK =      1    inner block; outer block 
   IBRION =     -1    ionic relax: 0-MD 1-quasi-New 2-CG
   NFREE  =      1    steps in history (QN), initial steepest desc. (CG)
   ISIF   =      2    stress and relaxation
   IWAVPR =     10    prediction:  0-non 1-charg 2-wave 3-comb
   ISYM   =      3    0-nonsym 1-usesym 2-fastsym
   LCORR  =      T    Harris-Foulkes like correction to forces

   POTIM  = 0.5000    time-step for ionic-motion
   TEIN   =    0.0    initial temperature
   TEBEG  =    0.0;   TEEND  =   0.0 temperature during run
   SMASS  =  -3.00    Nose mass-parameter (am)
   estimated Nose-frequenzy (Omega)   =  0.10E-29 period in steps =****** mass=  -0.391E-26a.u.
   SCALEE = 1.0000    scale energy and forces
   NPACO  =    256;   APACO  = 16.0  distance and # of slots for P.C.
   PSTRESS=    0.0 pullay stress

  Mass of Ions in am
   POMASS =  12.01 14.00 55.85
  Ionic Valenz
   ZVAL   =   4.00  5.00  8.00
  Atomic Wigner-Seitz radii
   RWIGS  =  -1.00 -1.00 -1.00
  virtual crystal weights 
   VCA    =   1.00  1.00  1.00
   NELECT =     242.0000    total number of electrons
   NUPDOWN=      -1.0000    fix difference up-down

 DOS related values:
   EMIN   =  10.00;   EMAX   =-10.00  energy-range for DOS
   EFERMI =   0.00
   ISMEAR =     0;   SIGMA  =   0.10  broadening in eV -4-tet -1-fermi 0-gaus

 Electronic relaxation 2 (details)
   IALGO  =     53    algorithm
   LDIAG  =      T    sub-space diagonalisation (order eigenvalues)
   LSUBROT=      F    optimize rotation matrix (better conditioning)
   TURBO    =      0    0=normal 1=particle mesh
   IRESTART =      0    0=no restart 2=restart with 2 vectors
   NREBOOT  =      0    no. of reboots
   NMIN     =      0    reboot dimension
   EREF     =   0.00    reference energy to select bands
   IMIX   =      4    mixing-type and parameters
     AMIX     =   0.40;   BMIX     =  1.00
     AMIX_MAG =   1.60;   BMIX_MAG =  1.00
     AMIN     =   0.10
     WC   =   100.;   INIMIX=   1;  MIXPRE=   1;  MAXMIX= -45

 Intra band minimization:
   WEIMIN = 0.0000     energy-eigenvalue tresh-hold
   EBREAK =  0.16E-06  absolut break condition
   DEPER  =   0.30     relativ break condition  

   TIME   =   0.20     timestep for ELM

  volume/ion in A,a.u.               =      54.77       369.63
  Fermi-wavevector in a.u.,A,eV,Ry     =   0.693980  1.311432  6.552678  0.481608
  Thomas-Fermi vector in A             =   1.776345
 
 Write flags
   LWAVE        =      T    write WAVECAR
   LDOWNSAMPLE  =      F    k-point downsampling of WAVECAR
   LCHARG       =      T    write CHGCAR
   LVTOT        =      F    write LOCPOT, total local potential
   LVHAR        =      F    write LOCPOT, Hartree potential only
   LELF         =      F    write electronic localiz. function (ELF)
   LORBIT       =     11    0 simple, 1 ext, 2 COOP (PROOUT), +10 PAW based schemes


 Dipole corrections
   LMONO  =      F    monopole corrections only (constant potential shift)
   LDIPOL =      T    correct potential (dipole corrections)
   IDIPOL =      3    1-x, 2-y, 3-z, 4-all directions 
   EPSILON=  1.0000000 bulk dielectric constant

 Exchange correlation treatment:
   GGA     =    PE    GGA type
   LEXCH   =     8    internal setting for exchange type
   VOSKOWN=      0    Vosko Wilk Nusair interpolation
   EXXOEP  =     0    0=HF, 1=EXX-LHF (local Hartree Fock) 2=EXX OEP
   LHFCALC =     T    Hartree Fock is set to
   LSYMGRAD=     F    symmetrize gradient (conserves proper symmetry)
   PRECFOCK=normal    Normal, Fast or Accurate (Low or Medium for compatibility)
   LRHFCALC=     F    long range Hartree Fock
   LRSCOR  =     F    long range correlation only (use DFT for short range part)
   LTHOMAS =     F    Thomas Fermi screening in HF
   LMODELHF=     F    short range full HF, long range fraction AEXX
   ENCUT4O =  -1.0   cutoff for four orbital integrals eV
   LMAXFOCK=     4    L truncation for augmentation on plane wave grid
   LMAXFOCKAE=  -1    L truncation for all-electron charge restoration on plane wave grid
   NMAXFOCKAE=   1    number of basis functions for all-electron charge restoration
   LFOCKAEDFT=     F  apply the AE augmentation even for DFT
   NKREDX  =     1    reduce k-point grid by
   NKREDY  =     1    reduce k-point grid by
   NKREDZ  =     1    reduce k-point grid by
   SHIFTRED=     F    shift reduced grid of Gamma
   HFKIDENT=     F    idential grid for each k-point
   ODDONLY =     F    use only odd q-grid points
   EVENONLY=     F    use only even q-grid points
   HFALPHA =   -1.0000 decay constant for conv. correction
   MCALPHA =    0.0000 extent of test-charge in conv. correction in multipole expansion
   AEXX    =    0.2500 exact exchange contribution
   HFSCREEN=    0.2000 screening length (either q_TF or 0.3 A-1)
   HFSCREENC=   0.2000 screening length for correlation (either q_TF or 0.3 A-1)
   HFRCUT  =    0.0000 spherical cutoff for potential kernel
   ALDAX   =    0.7500 LDA exchange part
   AGGAX   =    0.7500 GGA exchange part
   ALDAC   =    1.0000 LDA correlation
   AGGAC   =    1.0000 GGA correlation
   ENCUTFOCK=  -1.0 apply spherical cutoff to Coloumb kernel
   NBANDSGWLOW=     1    first orbital included in HF term
   NBLOCK_FOCK=    64    blocking factor in FOCK_ACC
 Linear response parameters
   LEPSILON=     F    determine dielectric tensor
   LRPA    =     F    only Hartree local field effects (RPA)
   LNABLA  =     F    use nabla operator in PAW spheres
   LVEL    =     F    velocity operator in full k-point grid
   LINTERFAST=   F  fast interpolation
   KINTER  =     0    interpolate to denser k-point grid
   CSHIFT  =0.1000    complex shift for real part using Kramers Kronig
   OMEGAMAX=  -1.0    maximum frequency
   DEG_THRESHOLD= 0.2000000E-02 threshold for treating states as degnerate
   RTIME   =   -0.100 relaxation time in fs
  (WPLASMAI=    0.000 imaginary part of plasma frequency in eV, 0.658/RTIME)
   DFIELD  = 0.0000000 0.0000000 0.0000000 field for delta impulse in time
 
 Orbital magnetization related:
   ORBITALMAG=     F  switch on orbital magnetization
   LCHIMAG   =     F  perturbation theory with respect to B field
   DQ        =  0.001000  dq finite difference perturbation B field
   LLRAUG    =     F  two centre corrections for induced B field



--------------------------------------------------------------------------------------------------------


 Static calculation
 charge density and potential will be updated during run
 spin polarized calculation
 Conjugate gradient for all bands (Freysoldt, et al. PRB 79, 241103 (2009))
 perform sub-space diagonalisation
    before iterative eigenvector-optimisation
 modified Broyden-mixing scheme, WC =      100.0
 initial mixing is a Kerker type mixing with AMIX =  0.4000 and BMIX =      1.0000
 Hartree-type preconditioning will be used
 using additional bands           34
 reciprocal scheme for non local part
 use partial core corrections
 no Harris-corrections to forces 
 use gradient corrections 
 use of overlap-Matrix (Vanderbilt PP)
 Gauss-broadening in eV      SIGMA  =   0.10


--------------------------------------------------------------------------------------------------------


  energy-cutoff  :      500.00
  volume of cell :     3176.87
      direct lattice vectors                 reciprocal lattice vectors
    13.083042787 -0.003893577 -0.000285563     0.076434825  0.000024897 -0.000031438
    -0.004020490 12.343345917  0.000395433     0.000024110  0.081015319 -0.000017325
     0.008089898  0.004204466 19.672402342     0.000001109 -0.000001628  0.050832632

  length of vectors
    13.083043369 12.343346578 19.672404455     0.076434836  0.081015324  0.050832632


 
 old parameters found on file WAVECAR:
  energy-cutoff  :      500.00
  volume of cell :     3176.87
      direct lattice vectors                 reciprocal lattice vectors
    13.002700000  0.000000000  0.000000000     0.076907104  0.000001879 -0.000032752
    -0.000299331 12.250299996  0.000000000     0.000000000  0.081630654 -0.000014533
     0.008493486  0.003550763 19.944297875     0.000000000  0.000000000  0.050139644

  length of vectors

 
 k-points in units of 2pi/SCALE and weight: KPOINTS created by Atomic Simulation Env
   0.01911473  0.02026005 -0.00001219       0.500
  -0.01910268  0.02024761  0.00000353       0.500
 
 k-points in reciprocal lattice and weights: KPOINTS created by Atomic Simulation Env
   0.25000000  0.25000000  0.00000000       0.500
  -0.25000000  0.25000000  0.00000000       0.500
 
 position of ions in fractional coordinates (direct lattice) 
   0.22498888  0.99987143  0.49979041
   0.05642951  0.09933505  0.49996575
   0.11287033  0.99994097  0.49991046
   0.27988140  0.10151687  0.49958582
   0.22190972  0.20198650  0.49954490
   0.05167013  0.29823368  0.50007354
   0.11087414  0.19992792  0.49986646
   0.20984761  0.39895727  0.49960468
   0.04832241  0.49998533  0.50025628
   0.10227367  0.39929043  0.50007221
   0.26235727  0.50023661  0.49931342
   0.20935693  0.60139636  0.49982574
   0.05112747  0.70156925  0.50017264
   0.10192767  0.60061479  0.50019060
   0.22114900  0.79786303  0.49986977
   0.05602146  0.90065578  0.50001581
   0.11019146  0.80004900  0.50003536
   0.27978056  0.89822746  0.49981871
   0.55710167  0.00049936  0.49994435
   0.39190702  0.10250711  0.49955383
   0.44630996  0.00014071  0.49979881
   0.61380505  0.09992359  0.49989722
   0.55896822  0.20008447  0.49957541
   0.61648148  0.30176989  0.49956216
   0.61302666  0.49788804  0.49950713
   0.61572776  0.69834650  0.49980236
   0.55955563  0.80112766  0.49990404
   0.39196823  0.89739675  0.49981742
   0.61395729  0.90117211  0.50004755
   0.89019863  0.00003560  0.50012122
   0.72380962  0.09925236  0.50006879
   0.77967584  0.00005739  0.50014329
   0.94580767  0.09933265  0.50010005
   0.88870580  0.19849436  0.50014281
   0.72520418  0.29940992  0.49990063
   0.77932300  0.19874038  0.50007108
   0.94236955  0.29864420  0.50017565
   0.88769666  0.39904413  0.50018387
   0.72338058  0.49916825  0.49984540
   0.77886528  0.39959038  0.49998820
   0.94074737  0.49993850  0.50024895
   0.88700004  0.60058398  0.50016162
   0.72460796  0.70039970  0.49996025
   0.77797939  0.59989790  0.49999148
   0.94182348  0.70102561  0.50016011
   0.88841727  0.80136132  0.50010380
   0.72388515  0.90093912  0.50011252
   0.77914747  0.80096433  0.50007525
   0.94554467  0.90061541  0.50008614
   0.27152670  0.30506714  0.49922787
   0.27065522  0.69506254  0.49959656
   0.44980346  0.20146166  0.49934871
   0.55931722  0.59960114  0.49947165
   0.45063031  0.79905694  0.49977565
   0.56305033  0.39718583  0.49926152
   0.36343928  0.49995347  0.49847377
   0.41333477  0.35312798  0.49876917
   0.41469454  0.64635392  0.49907118
 
 position of ions in cartesian coordinates  (Angst):
   2.94356241 12.34298430  9.83240914
   0.74191501  1.22800923  9.83555053
   1.47671130 12.34427964  9.83480297
   3.66533376  1.25406855  9.82801342
   2.90648354  2.49442549  9.82726468
   0.67884897  3.68310283  9.83775101
   1.45381112  2.46944946  9.83362156
   2.74788305  4.92575112  9.82852202
   0.63424095  6.17340702  9.84142665
   1.34049097  4.93028417  9.83775040
   3.43445954  6.17567133  9.82281741
   2.74065127  7.42452960  9.83295115
   0.67012855  8.66161578  9.83986020
   1.33515575  7.41530228  9.84015911
   2.89413797  9.84954001  9.83389154
   0.73335521 11.11899008  9.83685237
   1.44246827  9.87695495  9.83718164
   3.66081316 11.08814439  9.83290998
   7.29262745  0.00609659  9.83494747
   5.13096557  1.26585509  9.82735254
   5.84313508  0.00210052  9.83211589
   8.03408010  1.23310335  9.83404344
   7.31624223  2.46963587  9.82776805
   8.06828170  3.72455020  9.82753107
   8.02229319  6.14531757  9.82652707
   8.05682825  8.61963641  9.83241341
   7.32151353  9.88851894  9.83447050
   5.12857262 11.07745377  9.83285229
   8.03285172 11.12319102  9.83731753
  11.65055250 -0.00092393  9.83833176
   9.47327869  1.22439058  9.83738705
  10.20457824 -0.00022454  9.83879748
  12.37768865  1.22451731  9.83793861
  11.63022411  2.44872718  9.83883532
   9.49071763  3.69499837  9.83415767
  10.19916268  2.45218944  9.83745548
  12.33190681  3.68470250  9.83950553
  11.61621543  4.92418637  9.83972265
   9.46605582  6.16069145  9.83315070
  10.19236607  4.93135189  9.83590464
  12.30987500  6.16935429  9.84102760
  11.60629103  7.41186510  9.83936473
   9.48130559  8.64455657  9.83548930
  10.17997065  7.40382037  9.83604857
  12.32314464  8.65143746  9.83935913
  11.62402511  9.89012351  9.83830642
   9.47104400 11.11988735  9.83856424
  10.19444496  9.88564866  9.83777570
  12.37102612 11.11502853  9.83798191
   3.55520760  3.76659105  9.82105454
   3.54224103  8.58044411  9.82846204
   5.88802762  2.48705906  9.82333999
   7.31920116  7.40100660  9.82588459
   5.89644621  9.86338294  9.83197495
   7.36885362  4.90250894  9.82166969
   4.75691415  6.17177939  9.80627044
   5.41029175  4.35926857  9.81200934
   5.42690525  7.97865371  9.81806631
 


--------------------------------------------------------------------------------------------------------


 k-point  1 :   0.2500 0.2500 0.0000  plane waves:   80633
 k-point  2 :  -0.2500 0.2500 0.0000  plane waves:   80645

 maximum and minimum number of plane-waves per node :      2554     2489

 maximum number of plane-waves:     80645
 maximum index in each direction: 
   IXMAX=   24   IYMAX=   22   IZMAX=   35
   IXMIN=  -24   IYMIN=  -22   IZMIN=  -35


 parallel 3D FFT for wavefunctions:
    minimum data exchange during FFTs selected (reduces bandwidth)
 parallel 3D FFT for charge:
    minimum data exchange during FFTs selected (reduces bandwidth)


 FFT grid for exact exchange (Hartree Fock) 
  NGX = 72; NGY = 70; NGZ =108

 
 Radii for the augmentation spheres in the non-local exchange
 for species   1 augmentation radius   0.874 (default was   0.699)
       energy cutoff for augmentation   2000.0
 for species   2 augmentation radius   0.886 (default was   0.709)
       energy cutoff for augmentation   2000.0
 for species   3 augmentation radius   1.263 (default was   1.010)
       energy cutoff for augmentation   2000.0

 real space projection operators:
  total allocation   :       2423.30 KBytes
  max/ min on nodes  :        124.14         43.80

 Maximum index for augmentation-charges in exchange          141
  SETUP_FOCK is finished

 total amount of memory used by VASP MPI-rank0   156919. kBytes
=======================================================================

   base      :      30000. kBytes
   nonl-proj :       4591. kBytes
   fftplans  :      12934. kBytes
   grid      :      30670. kBytes
   one-center:         62. kBytes
   HF        :         23. kBytes
   nonlr-proj:       1623. kBytes
   wavefun   :      77016. kBytes
 
     INWAV:  cpu time    3.5005: real time    3.5008
 Broyden mixing: mesh for mixing (old mesh)
   NGX = 47   NGY = 45   NGZ = 71
  (NGX  =192   NGY  =180   NGZ  =288)
  gives a total of 150165 points

 charge density for first step will be calculated from the start-wavefunctions


--------------------------------------------------------------------------------------------------------


 Maximum index for augmentation-charges          234 (set IRDMAX)


--------------------------------------------------------------------------------------------------------


 initial charge from wavefunction
 First call to EWALD:  gamma=   0.121
 Maximum number of real-space cells 3x 3x 2
 Maximum number of reciprocal cells 2x 2x 4

    FEWALD:  cpu time    0.0033: real time    0.0033


--------------------------------------- Iteration      1(   1)  ---------------------------------------


    POTLOK:  cpu time    1.2366: real time    1.2401
    SETDIJ:  cpu time    2.0927: real time    2.0937
    TRIAL :  cpu time  514.2028: real time  514.2223
    CORREC:  cpu time    0.0019: real time    0.0022
    CHARGE:  cpu time    1.6012: real time    1.6013
    --------------------------------------------
      LOOP:  cpu time  519.1504: real time  519.1786

 eigenvalue-minimisations  :     0
 total energy-change (2. order) :-0.6060621E+03  (-0.4503846E+00)
 number of electron     242.0000041 magnetization       5.9976163
 augmentation part       13.5622046 magnetization       4.1272547

 DIPCOR: dipole corrections for dipol
 direction  3 min pos     1,
 dipolmoment           0.000001      0.000000      0.001261 electrons x Angstroem
 Tr[quadrupol]     -6504.206178

 energy correction for charged system         0.000000 eV
 dipol+quadrupol energy correction            0.000000 eV
 added-field ion interaction          0.000000 eV  (added to PSCEN)


 Free energy of the ion-electron system (eV)
  ---------------------------------------------------
  alpha Z        PSCENC =       100.92237967
  Ewald energy   TEWEN  =     37104.59750696
  -Hartree energ DENC   =    -45371.14822253
  -exchange      EXHF   =       541.77147234
  -V(xc)+E(xc)   XCENC  =       604.45832778
  PAW double counting   =     25627.28319622   -25673.62400519
  entropy T*S    EENTRO =        -0.00057672
  eigenvalues    EBANDS =     -3092.14676847
  atomic energy  EATOM  =      9551.82545455
  ---------------------------------------------------
  free energy    TOTEN  =      -606.06214387 eV

  energy without entropy =     -606.06156715  energy(sigma->0) =     -606.06185551
  exchange ACFDT corr.  =        -0.00116275  see jH, gK, PRB 81, 115126


--------------------------------------------------------------------------------------------------------




--------------------------------------- Iteration      1(   2)  ---------------------------------------


    POTLOK:  cpu time    1.2480: real time    1.2480
    SETDIJ:  cpu time    2.0883: real time    2.0883
    TRIAL :  cpu time  514.3582: real time  514.3743
    CORREC:  cpu time    0.0017: real time    0.0020
    CHARGE:  cpu time    1.5887: real time    1.5887
    --------------------------------------------
      LOOP:  cpu time  519.2875: real time  519.3039

 eigenvalue-minimisations  :     0
 total energy-change (2. order) :-0.3840053E+00  (-0.4283640E+00)
 number of electron     242.0000041 magnetization       5.9994476
 augmentation part       13.5403628 magnetization       4.2035990

 DIPCOR: dipole corrections for dipol
 direction  3 min pos     1,
 dipolmoment           0.000001      0.000000      0.001470 electrons x Angstroem
 Tr[quadrupol]     -6504.016256

 energy correction for charged system         0.000000 eV
 dipol+quadrupol energy correction            0.000000 eV
 added-field ion interaction          0.000000 eV  (added to PSCEN)


 Free energy of the ion-electron system (eV)
  ---------------------------------------------------
  alpha Z        PSCENC =       100.92237969
  Ewald energy   TEWEN  =     37104.59750696
  -Hartree energ DENC   =    -45355.30315409
  -exchange      EXHF   =       541.66617501
  -V(xc)+E(xc)   XCENC  =       604.10851153
  PAW double counting   =     25747.80650147   -25793.86910905
  entropy T*S    EENTRO =        -0.00014181
  eigenvalues    EBANDS =     -3108.19983852
  atomic energy  EATOM  =      9551.82545455
  ---------------------------------------------------
  free energy    TOTEN  =      -606.44614917 eV

  energy without entropy =     -606.44600736  energy(sigma->0) =     -606.44607826
  exchange ACFDT corr.  =        -0.00035325  see jH, gK, PRB 81, 115126


--------------------------------------------------------------------------------------------------------




--------------------------------------- Iteration      1(   3)  ---------------------------------------


    POTLOK:  cpu time    1.2632: real time    1.2631
    SETDIJ:  cpu time    2.0863: real time    2.0863
    TRIAL :  cpu time  513.2392: real time  513.2604
    CORREC:  cpu time    0.0017: real time    0.0020
    CHARGE:  cpu time    1.5876: real time    1.5876
    --------------------------------------------
      LOOP:  cpu time  518.1809: real time  518.2040

 eigenvalue-minimisations  :     0
 total energy-change (2. order) :-0.3387256E+00  (-0.2625165E+00)
 number of electron     242.0000040 magnetization       5.9999046
 augmentation part       13.5301475 magnetization       4.2678385

 DIPCOR: dipole corrections for dipol
 direction  3 min pos     1,
 dipolmoment           0.000001      0.000000      0.001706 electrons x Angstroem
 Tr[quadrupol]     -6503.823041

 energy correction for charged system         0.000000 eV
 dipol+quadrupol energy correction            0.000000 eV
 added-field ion interaction          0.000000 eV  (added to PSCEN)


 Free energy of the ion-electron system (eV)
  ---------------------------------------------------
  alpha Z        PSCENC =       100.92237971
  Ewald energy   TEWEN  =     37104.59750696
  -Hartree energ DENC   =    -45339.25987209
  -exchange      EXHF   =       541.64092543
  -V(xc)+E(xc)   XCENC  =       603.77011112
  PAW double counting   =     25905.05106324   -25950.94889960
  entropy T*S    EENTRO =        -0.00002722
  eigenvalues    EBANDS =     -3124.38340226
  atomic energy  EATOM  =      9551.82545455
  ---------------------------------------------------
  free energy    TOTEN  =      -606.78487476 eV

  energy without entropy =     -606.78484754  energy(sigma->0) =     -606.78486115
  exchange ACFDT corr.  =        -0.00006451  see jH, gK, PRB 81, 115126


--------------------------------------------------------------------------------------------------------




--------------------------------------- Iteration      1(   4)  ---------------------------------------


    POTLOK:  cpu time    1.2604: real time    1.2606
    SETDIJ:  cpu time    2.0891: real time    2.0892
    TRIAL :  cpu time  512.6494: real time  512.7588
    CORREC:  cpu time    0.0017: real time    0.0020
    CHARGE:  cpu time    1.5975: real time    1.5976
    --------------------------------------------
      LOOP:  cpu time  517.6007: real time  517.7106

 eigenvalue-minimisations  :     0
 total energy-change (2. order) :-0.2062165E+00  (-0.1610500E+00)
 number of electron     242.0000040 magnetization       5.9999853
 augmentation part       13.5287527 magnetization       4.3128302

 DIPCOR: dipole corrections for dipol
 direction  3 min pos     1,
 dipolmoment           0.000001      0.000000      0.001928 electrons x Angstroem
 Tr[quadrupol]     -6503.736269

 energy correction for charged system         0.000000 eV
 dipol+quadrupol energy correction            0.000000 eV
 added-field ion interaction          0.000000 eV  (added to PSCEN)


 Free energy of the ion-electron system (eV)
  ---------------------------------------------------
  alpha Z        PSCENC =       100.92237973
  Ewald energy   TEWEN  =     37104.59750696
  -Hartree energ DENC   =    -45331.43603777
  -exchange      EXHF   =       541.80245178
  -V(xc)+E(xc)   XCENC  =       603.63922329
  PAW double counting   =     26044.72817462   -26090.62732371
  entropy T*S    EENTRO =        -0.00000484
  eigenvalues    EBANDS =     -3132.44289350
  atomic energy  EATOM  =      9551.82545455
  ---------------------------------------------------
  free energy    TOTEN  =      -606.99109126 eV

  energy without entropy =     -606.99108642  energy(sigma->0) =     -606.99108884
  exchange ACFDT corr.  =        -0.00001243  see jH, gK, PRB 81, 115126


--------------------------------------------------------------------------------------------------------




--------------------------------------- Iteration      1(   5)  ---------------------------------------


    POTLOK:  cpu time    1.2626: real time    1.2626
    SETDIJ:  cpu time    2.0875: real time    2.0876
    TRIAL :  cpu time  510.0974: real time  510.1298
    CORREC:  cpu time    0.0017: real time    0.0019
    CHARGE:  cpu time    1.5885: real time    1.5885
    --------------------------------------------
      LOOP:  cpu time  515.0403: real time  515.0731

 eigenvalue-minimisations  :     0
 total energy-change (2. order) :-0.1322153E+00  (-0.1102649E+00)
 number of electron     242.0000040 magnetization       5.9999980
 augmentation part       13.5314296 magnetization       4.3421321

 DIPCOR: dipole corrections for dipol
 direction  3 min pos     1,
 dipolmoment           0.000001      0.000000      0.002126 electrons x Angstroem
 Tr[quadrupol]     -6503.749767

 energy correction for charged system         0.000000 eV
 dipol+quadrupol energy correction            0.000000 eV
 added-field ion interaction          0.000000 eV  (added to PSCEN)


 Free energy of the ion-electron system (eV)
  ---------------------------------------------------
  alpha Z        PSCENC =       100.92237975
  Ewald energy   TEWEN  =     37104.59750696
  -Hartree energ DENC   =    -45331.38204749
  -exchange      EXHF   =       542.09988446
  -V(xc)+E(xc)   XCENC  =       603.69907813
  PAW double counting   =     26148.54861907   -26194.52013713
  entropy T*S    EENTRO =        -0.00000096
  eigenvalues    EBANDS =     -3132.91404001
  atomic energy  EATOM  =      9551.82545455
  ---------------------------------------------------
  free energy    TOTEN  =      -607.12330655 eV

  energy without entropy =     -607.12330559  energy(sigma->0) =     -607.12330607
  exchange ACFDT corr.  =        -0.00000172  see jH, gK, PRB 81, 115126


--------------------------------------------------------------------------------------------------------




--------------------------------------- Iteration      1(   6)  ---------------------------------------


    POTLOK:  cpu time    1.2620: real time    1.2620
    SETDIJ:  cpu time    2.0914: real time    2.0914
    TRIAL :  cpu time  511.7744: real time  511.8082
    CORREC:  cpu time    0.0015: real time    0.0017
    CHARGE:  cpu time    1.5935: real time    1.5937
    --------------------------------------------
      LOOP:  cpu time  516.7254: real time  516.7596

 eigenvalue-minimisations  :     0
 total energy-change (2. order) :-0.9331822E-01  (-0.7715822E-01)
 number of electron     242.0000040 magnetization       6.0000002
 augmentation part       13.5354668 magnetization       4.3616447

 DIPCOR: dipole corrections for dipol
 direction  3 min pos     1,
 dipolmoment           0.000001      0.000000      0.002265 electrons x Angstroem
 Tr[quadrupol]     -6503.803438

 energy correction for charged system         0.000000 eV
 dipol+quadrupol energy correction            0.000000 eV
 added-field ion interaction          0.000000 eV  (added to PSCEN)


 Free energy of the ion-electron system (eV)
  ---------------------------------------------------
  alpha Z        PSCENC =       100.92237977
  Ewald energy   TEWEN  =     37104.59750696
  -Hartree energ DENC   =    -45334.74367513
  -exchange      EXHF   =       542.41988411
  -V(xc)+E(xc)   XCENC  =       603.83922850
  PAW double counting   =     26217.18600634   -26263.23773584
  entropy T*S    EENTRO =        -0.00000024
  eigenvalues    EBANDS =     -3130.02567306
  atomic energy  EATOM  =      9551.82545455
  ---------------------------------------------------
  free energy    TOTEN  =      -607.21662477 eV

  energy without entropy =     -607.21662453  energy(sigma->0) =     -607.21662465
  exchange ACFDT corr.  =        -0.00000028  see jH, gK, PRB 81, 115126


--------------------------------------------------------------------------------------------------------




--------------------------------------- Iteration      1(   7)  ---------------------------------------


    POTLOK:  cpu time    1.2607: real time    1.2606
    SETDIJ:  cpu time    2.0858: real time    2.0858
    TRIAL :  cpu time  512.1138: real time  512.1553
    CORREC:  cpu time    0.0015: real time    0.0018
    CHARGE:  cpu time    1.5861: real time    1.5863
    --------------------------------------------
      LOOP:  cpu time  517.0498: real time  517.0918

 eigenvalue-minimisations  :     0
 total energy-change (2. order) :-0.6649651E-01  (-0.5429495E-01)
 number of electron     242.0000040 magnetization       6.0000006
 augmentation part       13.5394928 magnetization       4.3759525

 DIPCOR: dipole corrections for dipol
 direction  3 min pos     1,
 dipolmoment           0.000001      0.000000      0.002338 electrons x Angstroem
 Tr[quadrupol]     -6503.852803

 energy correction for charged system         0.000000 eV
 dipol+quadrupol energy correction            0.000000 eV
 added-field ion interaction          0.000000 eV  (added to PSCEN)


 Free energy of the ion-electron system (eV)
  ---------------------------------------------------
  alpha Z        PSCENC =       100.92237978
  Ewald energy   TEWEN  =     37104.59750696
  -Hartree energ DENC   =    -45338.20974925
  -exchange      EXHF   =       542.68811500
  -V(xc)+E(xc)   XCENC  =       603.97573538
  PAW double counting   =     26258.86332696   -26304.98969126
  entropy T*S    EENTRO =        -0.00000008
  eigenvalues    EBANDS =     -3126.95619914
  atomic energy  EATOM  =      9551.82545455
  ---------------------------------------------------
  free energy    TOTEN  =      -607.28312128 eV

  energy without entropy =     -607.28312120  energy(sigma->0) =     -607.28312124
  exchange ACFDT corr.  =        -0.00000006  see jH, gK, PRB 81, 115126


--------------------------------------------------------------------------------------------------------




--------------------------------------- Iteration      1(   8)  ---------------------------------------


    POTLOK:  cpu time    1.2554: real time    1.2553
    SETDIJ:  cpu time    2.0858: real time    2.0859
    TRIAL :  cpu time  511.6094: real time  511.6447
    CORREC:  cpu time    0.0013: real time    0.0016
    CHARGE:  cpu time    1.5857: real time    1.5858
    --------------------------------------------
      LOOP:  cpu time  516.5400: real time  516.5757

 eigenvalue-minimisations  :     0
 total energy-change (2. order) :-0.4757438E-01  (-0.3892170E-01)
 number of electron     242.0000040 magnetization       6.0000008
 augmentation part       13.5428592 magnetization       4.3877603

 DIPCOR: dipole corrections for dipol
 direction  3 min pos     1,
 dipolmoment           0.000001      0.000001      0.002360 electrons x Angstroem
 Tr[quadrupol]     -6503.881555

 energy correction for charged system         0.000000 eV
 dipol+quadrupol energy correction            0.000000 eV
 added-field ion interaction          0.000000 eV  (added to PSCEN)


 Free energy of the ion-electron system (eV)
  ---------------------------------------------------
  alpha Z        PSCENC =       100.92237978
  Ewald energy   TEWEN  =     37104.59750696
  -Hartree energ DENC   =    -45340.43370386
  -exchange      EXHF   =       542.88278547
  -V(xc)+E(xc)   XCENC  =       604.07455540
  PAW double counting   =     26282.16633815   -26328.36200138
  entropy T*S    EENTRO =        -0.00000003
  eigenvalues    EBANDS =     -3125.00401065
  atomic energy  EATOM  =      9551.82545455
  ---------------------------------------------------
  free energy    TOTEN  =      -607.33069566 eV

  energy without entropy =     -607.33069563  energy(sigma->0) =     -607.33069564
  exchange ACFDT corr.  =        -0.00000002  see jH, gK, PRB 81, 115126


--------------------------------------------------------------------------------------------------------




--------------------------------------- Iteration      1(   9)  ---------------------------------------


    POTLOK:  cpu time    1.2519: real time    1.2519
    SETDIJ:  cpu time    2.0858: real time    2.0859
    TRIAL :  cpu time  512.1946: real time  512.2061
    CORREC:  cpu time    0.0014: real time    0.0016
    CHARGE:  cpu time    1.5897: real time    1.5897
    --------------------------------------------
      LOOP:  cpu time  517.1260: real time  517.1396

 eigenvalue-minimisations  :     0
 total energy-change (2. order) :-0.3459689E-01  (-0.2846575E-01)
 number of electron     242.0000040 magnetization       6.0000008
 augmentation part       13.5453522 magnetization       4.3983066

 DIPCOR: dipole corrections for dipol
 direction  3 min pos     1,
 dipolmoment           0.000001      0.000001      0.002360 electrons x Angstroem
 Tr[quadrupol]     -6503.891909

 energy correction for charged system         0.000000 eV
 dipol+quadrupol energy correction            0.000000 eV
 added-field ion interaction          0.000000 eV  (added to PSCEN)


 Free energy of the ion-electron system (eV)
  ---------------------------------------------------
  alpha Z        PSCENC =       100.92237978
  Ewald energy   TEWEN  =     37104.59750696
  -Hartree energ DENC   =    -45341.40096901
  -exchange      EXHF   =       543.01425714
  -V(xc)+E(xc)   XCENC  =       604.13538602
  PAW double counting   =     26294.22131602   -26340.47982797
  entropy T*S    EENTRO =        -0.00000002
  eigenvalues    EBANDS =     -3124.20079600
  atomic energy  EATOM  =      9551.82545455
  ---------------------------------------------------
  free energy    TOTEN  =      -607.36529255 eV

  energy without entropy =     -607.36529253  energy(sigma->0) =     -607.36529254
  exchange ACFDT corr.  =        -0.00000001  see jH, gK, PRB 81, 115126


--------------------------------------------------------------------------------------------------------




--------------------------------------- Iteration      1(  10)  ---------------------------------------


    POTLOK:  cpu time    1.2467: real time    1.2468
    SETDIJ:  cpu time    2.0911: real time    2.0910
    TRIAL :  cpu time  511.5711: real time  511.6110
    CORREC:  cpu time    0.0013: real time    0.0015
    CHARGE:  cpu time    1.5828: real time    1.5829
    --------------------------------------------
      LOOP:  cpu time  516.4953: real time  516.5356

 eigenvalue-minimisations  :     0
 total energy-change (2. order) :-0.2558903E-01  (-0.2112374E-01)
 number of electron     242.0000040 magnetization       6.0000008
 augmentation part       13.5470497 magnetization       4.4079675

 DIPCOR: dipole corrections for dipol
 direction  3 min pos     1,
 dipolmoment           0.000001      0.000001      0.002367 electrons x Angstroem
 Tr[quadrupol]     -6503.892103

 energy correction for charged system         0.000000 eV
 dipol+quadrupol energy correction            0.000000 eV
 added-field ion interaction          0.000000 eV  (added to PSCEN)


 Free energy of the ion-electron system (eV)
  ---------------------------------------------------
  alpha Z        PSCENC =       100.92237978
  Ewald energy   TEWEN  =     37104.59750696
  -Hartree energ DENC   =    -45341.60107933
  -exchange      EXHF   =       543.10351477
  -V(xc)+E(xc)   XCENC  =       604.17102371
  PAW double counting   =     26300.00015402   -26346.31293481
  entropy T*S    EENTRO =        -0.00000001
  eigenvalues    EBANDS =     -3124.09690121
  atomic energy  EATOM  =      9551.82545455
  ---------------------------------------------------
  free energy    TOTEN  =      -607.39088158 eV

  energy without entropy =     -607.39088157  energy(sigma->0) =     -607.39088157
  exchange ACFDT corr.  =        -0.00000000  see jH, gK, PRB 81, 115126


--------------------------------------------------------------------------------------------------------




--------------------------------------- Iteration      1(  11)  ---------------------------------------


    POTLOK:  cpu time    1.2483: real time    1.2483
    SETDIJ:  cpu time    2.0874: real time    2.0874
    TRIAL :  cpu time  512.1318: real time  512.1860
    CORREC:  cpu time    0.0013: real time    0.0016
    CHARGE:  cpu time    1.5886: real time    1.5887
    --------------------------------------------
      LOOP:  cpu time  517.0598: real time  517.1144

 eigenvalue-minimisations  :     0
 total energy-change (2. order) :-0.1916469E-01  (-0.1586287E-01)
 number of electron     242.0000040 magnetization       6.0000008
 augmentation part       13.5482409 magnetization       4.4167636

 DIPCOR: dipole corrections for dipol
 direction  3 min pos     1,
 dipolmoment           0.000001      0.000001      0.002383 electrons x Angstroem
 Tr[quadrupol]     -6503.889323

 energy correction for charged system         0.000000 eV
 dipol+quadrupol energy correction            0.000000 eV
 added-field ion interaction          0.000000 eV  (added to PSCEN)


 Free energy of the ion-electron system (eV)
  ---------------------------------------------------
  alpha Z        PSCENC =       100.92237979
  Ewald energy   TEWEN  =     37104.59750696
  -Hartree energ DENC   =    -45341.51768708
  -exchange      EXHF   =       543.16922134
  -V(xc)+E(xc)   XCENC  =       604.19439337
  PAW double counting   =     26302.61608288   -26348.97321368
  entropy T*S    EENTRO =        -0.00000001
  eigenvalues    EBANDS =     -3124.24418438
  atomic energy  EATOM  =      9551.82545455
  ---------------------------------------------------
  free energy    TOTEN  =      -607.41004627 eV

  energy without entropy =     -607.41004626  energy(sigma->0) =     -607.41004627
  exchange ACFDT corr.  =        -0.00000000  see jH, gK, PRB 81, 115126


--------------------------------------------------------------------------------------------------------




--------------------------------------- Iteration      1(  12)  ---------------------------------------


    POTLOK:  cpu time    1.2357: real time    1.2358
    SETDIJ:  cpu time    2.0858: real time    2.0858
    TRIAL :  cpu time  512.0349: real time  512.0933
    CORREC:  cpu time    0.0013: real time    0.0016
    CHARGE:  cpu time    1.5910: real time    1.5912
    --------------------------------------------
      LOOP:  cpu time  516.9511: real time  517.0099

 eigenvalue-minimisations  :     0
 total energy-change (2. order) :-0.1450701E-01  (-0.1203891E-01)
 number of electron     242.0000040 magnetization       6.0000008
 augmentation part       13.5492208 magnetization       4.4246613

 DIPCOR: dipole corrections for dipol
 direction  3 min pos     1,
 dipolmoment           0.000001      0.000001      0.002405 electrons x Angstroem
 Tr[quadrupol]     -6503.887402

 energy correction for charged system         0.000000 eV
 dipol+quadrupol energy correction            0.000000 eV
 added-field ion interaction          0.000000 eV  (added to PSCEN)


 Free energy of the ion-electron system (eV)
  ---------------------------------------------------
  alpha Z        PSCENC =       100.92237979
  Ewald energy   TEWEN  =     37104.59750696
  -Hartree energ DENC   =    -45341.43637297
  -exchange      EXHF   =       543.22298037
  -V(xc)+E(xc)   XCENC  =       604.21354618
  PAW double counting   =     26303.95463129   -26350.34750376
  entropy T*S    EENTRO =        -0.00000000
  eigenvalues    EBANDS =     -3124.37717566
  atomic energy  EATOM  =      9551.82545455
  ---------------------------------------------------
  free energy    TOTEN  =      -607.42455328 eV

  energy without entropy =     -607.42455327  energy(sigma->0) =     -607.42455327
  exchange ACFDT corr.  =        -0.00000000  see jH, gK, PRB 81, 115126


--------------------------------------------------------------------------------------------------------




--------------------------------------- Iteration      1(  13)  ---------------------------------------


    POTLOK:  cpu time    1.2351: real time    1.2354
    SETDIJ:  cpu time    2.0888: real time    2.0889
    TRIAL :  cpu time  512.3794: real time  512.4242
    CORREC:  cpu time    0.0014: real time    0.0016
    CHARGE:  cpu time    1.5963: real time    1.5964
    --------------------------------------------
      LOOP:  cpu time  517.3033: real time  517.3488

 eigenvalue-minimisations  :     0
 total energy-change (2. order) :-0.1108735E-01  (-0.9228382E-02)
 number of electron     242.0000040 magnetization       6.0000008
 augmentation part       13.5501256 magnetization       4.4316823

 DIPCOR: dipole corrections for dipol
 direction  3 min pos     1,
 dipolmoment           0.000001      0.000001      0.002427 electrons x Angstroem
 Tr[quadrupol]     -6503.887162

 energy correction for charged system         0.000000 eV
 dipol+quadrupol energy correction            0.000000 eV
 added-field ion interaction          0.000000 eV  (added to PSCEN)


 Free energy of the ion-electron system (eV)
  ---------------------------------------------------
  alpha Z        PSCENC =       100.92237979
  Ewald energy   TEWEN  =     37104.59750696
  -Hartree energ DENC   =    -45341.44073666
  -exchange      EXHF   =       543.26985776
  -V(xc)+E(xc)   XCENC  =       604.23147764
  PAW double counting   =     26305.18877134   -26351.61142523
  entropy T*S    EENTRO =        -0.00000000
  eigenvalues    EBANDS =     -3124.41892677
  atomic energy  EATOM  =      9551.82545455
  ---------------------------------------------------
  free energy    TOTEN  =      -607.43564063 eV

  energy without entropy =     -607.43564063  energy(sigma->0) =     -607.43564063
  exchange ACFDT corr.  =        -0.00000000  see jH, gK, PRB 81, 115126


--------------------------------------------------------------------------------------------------------




--------------------------------------- Iteration      1(  14)  ---------------------------------------


    POTLOK:  cpu time    1.2332: real time    1.2333
    SETDIJ:  cpu time    2.0914: real time    2.0915
    TRIAL :  cpu time  510.7555: real time  510.8076
    CORREC:  cpu time    0.0012: real time    0.0015
    CHARGE:  cpu time    1.5851: real time    1.5852
    --------------------------------------------
      LOOP:  cpu time  515.6686: real time  515.7213

 eigenvalue-minimisations  :     0
 total energy-change (2. order) :-0.8550471E-02  (-0.7144051E-02)
 number of electron     242.0000040 magnetization       6.0000008
 augmentation part       13.5509603 magnetization       4.4378931

 DIPCOR: dipole corrections for dipol
 direction  3 min pos     1,
 dipolmoment           0.000001      0.000001      0.002447 electrons x Angstroem
 Tr[quadrupol]     -6503.888074

 energy correction for charged system         0.000000 eV
 dipol+quadrupol energy correction            0.000000 eV
 added-field ion interaction          0.000000 eV  (added to PSCEN)


 Free energy of the ion-electron system (eV)
  ---------------------------------------------------
  alpha Z        PSCENC =       100.92237979
  Ewald energy   TEWEN  =     37104.59750696
  -Hartree energ DENC   =    -45341.51107271
  -exchange      EXHF   =       543.31126379
  -V(xc)+E(xc)   XCENC  =       604.24836415
  PAW double counting   =     26306.69182698   -26353.14031333
  entropy T*S    EENTRO =        -0.00000000
  eigenvalues    EBANDS =     -3124.38960128
  atomic energy  EATOM  =      9551.82545455
  ---------------------------------------------------
  free energy    TOTEN  =      -607.44419110 eV

  energy without entropy =     -607.44419110  energy(sigma->0) =     -607.44419110
  exchange ACFDT corr.  =        -0.00000000  see jH, gK, PRB 81, 115126


--------------------------------------------------------------------------------------------------------




--------------------------------------- Iteration      1(  15)  ---------------------------------------


    POTLOK:  cpu time    1.2295: real time    1.2297
    SETDIJ:  cpu time    2.0861: real time    2.0863
    TRIAL :  cpu time  510.5462: real time  510.5898
    CORREC:  cpu time    0.0012: real time    0.0014
    CHARGE:  cpu time    1.5939: real time    1.5939
    --------------------------------------------
      LOOP:  cpu time  515.4593: real time  515.5034

 eigenvalue-minimisations  :     0
 total energy-change (2. order) :-0.6654139E-02  (-0.5585592E-02)
 number of electron     242.0000040 magnetization       6.0000008
 augmentation part       13.5516799 magnetization       4.4433696

 DIPCOR: dipole corrections for dipol
 direction  3 min pos     1,
 dipolmoment           0.000001      0.000001      0.002464 electrons x Angstroem
 Tr[quadrupol]     -6503.889298

 energy correction for charged system         0.000000 eV
 dipol+quadrupol energy correction            0.000000 eV
 added-field ion interaction          0.000000 eV  (added to PSCEN)


 Free energy of the ion-electron system (eV)
  ---------------------------------------------------
  alpha Z        PSCENC =       100.92237980
  Ewald energy   TEWEN  =     37104.59750696
  -Hartree energ DENC   =    -45341.59951392
  -exchange      EXHF   =       543.34743919
  -V(xc)+E(xc)   XCENC  =       604.26358288
  PAW double counting   =     26308.47761060   -26354.94880362
  entropy T*S    EENTRO =        -0.00000000
  eigenvalues    EBANDS =     -3124.33650167
  atomic energy  EATOM  =      9551.82545455
  ---------------------------------------------------
  free energy    TOTEN  =      -607.45084524 eV

  energy without entropy =     -607.45084524  energy(sigma->0) =     -607.45084524
  exchange ACFDT corr.  =        -0.00000000  see jH, gK, PRB 81, 115126


--------------------------------------------------------------------------------------------------------




--------------------------------------- Iteration      1(  16)  ---------------------------------------


    POTLOK:  cpu time    1.2270: real time    1.2271
    SETDIJ:  cpu time    2.0824: real time    2.0825
    TRIAL :  cpu time  510.1077: real time  510.1449
    CORREC:  cpu time    0.0013: real time    0.0015
    CHARGE:  cpu time    1.5873: real time    1.5873
    --------------------------------------------
      LOOP:  cpu time  515.0082: real time  515.0458

 eigenvalue-minimisations  :     0
 total energy-change (2. order) :-0.5226774E-02  (-0.4413883E-02)
 number of electron     242.0000040 magnetization       6.0000008
 augmentation part       13.5522611 magnetization       4.4482003

 DIPCOR: dipole corrections for dipol
 direction  3 min pos     1,
 dipolmoment           0.000001      0.000001      0.002478 electrons x Angstroem
 Tr[quadrupol]     -6503.890309

 energy correction for charged system         0.000000 eV
 dipol+quadrupol energy correction            0.000000 eV
 added-field ion interaction          0.000000 eV  (added to PSCEN)


 Free energy of the ion-electron system (eV)
  ---------------------------------------------------
  alpha Z        PSCENC =       100.92237980
  Ewald energy   TEWEN  =     37104.59750696
  -Hartree energ DENC   =    -45341.67489605
  -exchange      EXHF   =       543.37872708
  -V(xc)+E(xc)   XCENC  =       604.27682570
  PAW double counting   =     26310.39662489   -26356.88746095
  entropy T*S    EENTRO =        -0.00000000
  eigenvalues    EBANDS =     -3124.29123399
  atomic energy  EATOM  =      9551.82545455
  ---------------------------------------------------
  free energy    TOTEN  =      -607.45607201 eV

  energy without entropy =     -607.45607201  energy(sigma->0) =     -607.45607201
  exchange ACFDT corr.  =        -0.00000000  see jH, gK, PRB 81, 115126


--------------------------------------------------------------------------------------------------------




--------------------------------------- Iteration      1(  17)  ---------------------------------------


    POTLOK:  cpu time    1.2263: real time    1.2263
    SETDIJ:  cpu time    2.1127: real time    2.1127
    TRIAL :  cpu time  511.0645: real time  511.0754
    CORREC:  cpu time    0.0013: real time    0.0015
    CHARGE:  cpu time    1.5844: real time    1.5844
    --------------------------------------------
      LOOP:  cpu time  515.9913: real time  516.0024

 eigenvalue-minimisations  :     0
 total energy-change (2. order) :-0.4147950E-02  (-0.3525661E-02)
 number of electron     242.0000040 magnetization       6.0000008
 augmentation part       13.5527219 magnetization       4.4524866

 DIPCOR: dipole corrections for dipol
 direction  3 min pos     1,
 dipolmoment           0.000001      0.000001      0.002488 electrons x Angstroem
 Tr[quadrupol]     -6503.890929

 energy correction for charged system         0.000000 eV
 dipol+quadrupol energy correction            0.000000 eV
 added-field ion interaction          0.000000 eV  (added to PSCEN)


 Free energy of the ion-electron system (eV)
  ---------------------------------------------------
  alpha Z        PSCENC =       100.92237980
  Ewald energy   TEWEN  =     37104.59750696
  -Hartree energ DENC   =    -45341.72771949
  -exchange      EXHF   =       543.40574741
  -V(xc)+E(xc)   XCENC  =       604.28821957
  PAW double counting   =     26312.26611741   -26358.77356614
  entropy T*S    EENTRO =        -0.00000000
  eigenvalues    EBANDS =     -3124.26436004
  atomic energy  EATOM  =      9551.82545455
  ---------------------------------------------------
  free energy    TOTEN  =      -607.46021996 eV

  energy without entropy =     -607.46021996  energy(sigma->0) =     -607.46021996
  exchange ACFDT corr.  =        -0.00000000  see jH, gK, PRB 81, 115126


--------------------------------------------------------------------------------------------------------




--------------------------------------- Iteration      1(  18)  ---------------------------------------


    POTLOK:  cpu time    1.2272: real time    1.2273
    SETDIJ:  cpu time    2.0817: real time    2.0817
    TRIAL :  cpu time  510.8363: real time  510.8652
    CORREC:  cpu time    0.0011: real time    0.0014
    CHARGE:  cpu time    1.5855: real time    1.5857
    --------------------------------------------
      LOOP:  cpu time  515.7335: real time  515.7630

 eigenvalue-minimisations  :     0
 total energy-change (2. order) :-0.3326637E-02  (-0.2847582E-02)
 number of electron     242.0000040 magnetization       6.0000008
 augmentation part       13.5530986 magnetization       4.4563226

 DIPCOR: dipole corrections for dipol
 direction  3 min pos     1,
 dipolmoment           0.000001      0.000001      0.002496 electrons x Angstroem
 Tr[quadrupol]     -6503.891222

 energy correction for charged system         0.000000 eV
 dipol+quadrupol energy correction            0.000000 eV
 added-field ion interaction          0.000000 eV  (added to PSCEN)


 Free energy of the ion-electron system (eV)
  ---------------------------------------------------
  alpha Z        PSCENC =       100.92237980
  Ewald energy   TEWEN  =     37104.59750696
  -Hartree energ DENC   =    -45341.76226114
  -exchange      EXHF   =       543.42919223
  -V(xc)+E(xc)   XCENC  =       604.29811286
  PAW double counting   =     26313.95852382   -26360.47998922
  entropy T*S    EENTRO =        -0.00000000
  eigenvalues    EBANDS =     -3124.25246646
  atomic energy  EATOM  =      9551.82545455
  ---------------------------------------------------
  free energy    TOTEN  =      -607.46354660 eV

  energy without entropy =     -607.46354660  energy(sigma->0) =     -607.46354660
  exchange ACFDT corr.  =        -0.00000000  see jH, gK, PRB 81, 115126


--------------------------------------------------------------------------------------------------------




--------------------------------------- Iteration      1(  19)  ---------------------------------------


    POTLOK:  cpu time    1.2246: real time    1.2246
    SETDIJ:  cpu time    2.0823: real time    2.0822
    TRIAL :  cpu time  511.1077: real time  511.1195
    CORREC:  cpu time    0.0013: real time    0.0015
    CHARGE:  cpu time    1.5829: real time    1.5830
    --------------------------------------------
      LOOP:  cpu time  516.0009: real time  516.0129

 eigenvalue-minimisations  :     0
 total energy-change (2. order) :-0.2697241E-02  (-0.2328060E-02)
 number of electron     242.0000040 magnetization       6.0000008
 augmentation part       13.5534220 magnetization       4.4597801

 DIPCOR: dipole corrections for dipol
 direction  3 min pos     1,
 dipolmoment           0.000001      0.000001      0.002502 electrons x Angstroem
 Tr[quadrupol]     -6503.891348

 energy correction for charged system         0.000000 eV
 dipol+quadrupol energy correction            0.000000 eV
 added-field ion interaction          0.000000 eV  (added to PSCEN)


 Free energy of the ion-electron system (eV)
  ---------------------------------------------------
  alpha Z        PSCENC =       100.92237980
  Ewald energy   TEWEN  =     37104.59750696
  -Hartree energ DENC   =    -45341.78709247
  -exchange      EXHF   =       543.44967875
  -V(xc)+E(xc)   XCENC  =       604.30686560
  PAW double counting   =     26315.42604717   -26361.95955317
  entropy T*S    EENTRO =        -0.00000000
  eigenvalues    EBANDS =     -3124.24753103
  atomic energy  EATOM  =      9551.82545455
  ---------------------------------------------------
  free energy    TOTEN  =      -607.46624384 eV

  energy without entropy =     -607.46624384  energy(sigma->0) =     -607.46624384
  exchange ACFDT corr.  =        -0.00000000  see jH, gK, PRB 81, 115126


--------------------------------------------------------------------------------------------------------




--------------------------------------- Iteration      1(  20)  ---------------------------------------


    POTLOK:  cpu time    1.2253: real time    1.2254
    SETDIJ:  cpu time    2.0828: real time    2.0827
    TRIAL :  cpu time  510.4699: real time  510.4793
    CORREC:  cpu time    0.0012: real time    0.0015
    CHARGE:  cpu time    1.5867: real time    1.5866
    --------------------------------------------
      LOOP:  cpu time  515.3682: real time  515.3778

 eigenvalue-minimisations  :     0
 total energy-change (2. order) :-0.2213365E-02  (-0.1927880E-02)
 number of electron     242.0000040 magnetization       6.0000008
 augmentation part       13.5537012 magnetization       4.4629054

 DIPCOR: dipole corrections for dipol
 direction  3 min pos     1,
 dipolmoment           0.000001      0.000001      0.002507 electrons x Angstroem
 Tr[quadrupol]     -6503.891425

 energy correction for charged system         0.000000 eV
 dipol+quadrupol energy correction            0.000000 eV
 added-field ion interaction          0.000000 eV  (added to PSCEN)


 Free energy of the ion-electron system (eV)
  ---------------------------------------------------
  alpha Z        PSCENC =       100.92237980
  Ewald energy   TEWEN  =     37104.59750696
  -Hartree energ DENC   =    -45341.80808579
  -exchange      EXHF   =       543.46767087
  -V(xc)+E(xc)   XCENC  =       604.31471999
  PAW double counting   =     26316.66435355   -26363.20845379
  entropy T*S    EENTRO =        -0.00000000
  eigenvalues    EBANDS =     -3124.24400334
  atomic energy  EATOM  =      9551.82545455
  ---------------------------------------------------
  free energy    TOTEN  =      -607.46845721 eV

  energy without entropy =     -607.46845721  energy(sigma->0) =     -607.46845721
  exchange ACFDT corr.  =        -0.00000000  see jH, gK, PRB 81, 115126


--------------------------------------------------------------------------------------------------------




--------------------------------------- Iteration      1(  21)  ---------------------------------------


    POTLOK:  cpu time    1.2279: real time    1.2279
    SETDIJ:  cpu time    2.0840: real time    2.0839
    TRIAL :  cpu time  509.7717: real time  509.7857
[...]
  augment    54.64509    46.23649    55.70159     0.14122    -0.00350     0.06236
  Kinetic  3548.76509  3523.65530  3981.92464     1.16430     0.03652     0.16262
  Fock     -325.43508  -317.84365  -304.74051    -0.17495     0.01493    -0.02824
  -------------------------------------------------------------------------------------
  Total     -42.62701   -42.43586    -0.30256     0.52954     0.00385     0.02463
  in kB     -21.49792   -21.40152    -0.15259     0.26706     0.00194     0.01242
  external pressure =      -14.35 kB  Pullay stress =        0.00 kB


 VOLUME and BASIS-vectors are now :
 -----------------------------------------------------------------------------
  energy-cutoff  :      500.00
  volume of cell :     3176.87
      direct lattice vectors                 reciprocal lattice vectors
    13.083042787 -0.003893577 -0.000285563     0.076434825  0.000024897 -0.000031438
    -0.004020490 12.343345917  0.000395433     0.000024110  0.081015319 -0.000017325
     0.008089898  0.004204466 19.672402342     0.000001109 -0.000001628  0.050832632

  length of vectors
    13.083043369 12.343346578 19.672404455     0.076434836  0.081015324  0.050832632


 FORCES acting on ions:
    Electron-Ion                     Ewald-Force                    Non-Local-Force
 -----------------------------------------------------------------------------------------------
   -.257E+01 0.735E+00 -.662E-01   0.317E+01 -.866E+00 0.713E-01   -.445E+00 0.142E+00 -.550E-02
   -.286E+01 0.389E+01 -.379E+00   0.302E+01 -.398E+01 0.379E+00   -.174E+00 0.297E-01 0.639E-03
   -.148E+02 0.521E+00 -.128E+00   0.149E+02 -.595E+00 0.123E+00   -.247E+00 0.647E-01 0.508E-02
   -.868E+01 -.190E+01 0.759E+00   0.912E+01 0.231E+01 -.768E+00   -.476E+00 -.463E+00 0.112E-01
   -.121E+02 0.132E+02 0.847E+00   0.127E+02 -.128E+02 -.843E+00   -.593E+00 -.374E+00 -.204E-02
   -.412E+00 0.140E+02 -.115E+01   0.729E+00 -.142E+02 0.115E+01   -.154E+00 0.239E+00 0.119E-02
   -.101E+02 0.636E+01 -.218E+00   0.107E+02 -.639E+01 0.219E+00   -.579E+00 0.114E+00 -.976E-03
   0.727E+01 0.139E+02 -.176E+00   -.661E+01 -.152E+02 0.167E+00   -.567E+00 0.701E+00 0.567E-02
   -.240E+01 0.386E+00 -.222E+01   0.235E+01 -.193E+00 0.222E+01   -.310E-01 -.183E+00 -.362E-02
   0.555E+01 0.186E+01 -.176E+01   -.552E+01 -.191E+01 0.176E+01   -.767E-01 -.478E-01 -.973E-02
   0.425E+02 -.204E+01 0.691E+00   -.440E+02 0.247E+01 -.703E+00   0.255E+01 -.359E+00 -.472E-02
   0.535E+01 -.135E+02 -.127E+01   -.461E+01 0.154E+02 0.126E+01   -.659E+00 -.132E+01 -.215E-02
   -.168E+00 -.141E+02 -.141E+01   0.420E+00 0.142E+02 0.141E+01   -.129E+00 -.210E+00 0.479E-05
   0.574E+01 -.291E+01 -.222E+01   -.546E+01 0.313E+01 0.222E+01   -.291E+00 -.942E-01 -.705E-02
   -.140E+02 -.138E+02 -.556E+00   0.147E+02 0.129E+02 0.564E+00   -.810E+00 0.843E+00 -.965E-02
   -.317E+01 -.377E+01 -.441E+00   0.331E+01 0.372E+01 0.442E+00   -.155E+00 0.117E+00 0.218E-03
   -.100E+02 -.618E+01 -.779E+00   0.109E+02 0.613E+01 0.780E+00   -.746E+00 -.155E-01 -.131E-02
   -.101E+02 0.422E+01 -.228E+00   0.106E+02 -.495E+01 0.217E+00   -.539E+00 0.767E+00 0.839E-02
   0.115E+02 0.160E+01 -.848E+00   -.119E+02 -.180E+01 0.843E+00   0.423E+00 0.201E+00 0.169E-02
   0.120E+02 -.268E+01 0.671E+00   -.116E+02 0.315E+01 -.669E+00   -.322E+00 -.362E+00 0.341E-03
   0.865E+01 0.189E+01 -.381E+00   -.925E+01 -.214E+01 0.384E+00   0.609E+00 0.213E+00 -.376E-02
   0.286E+01 0.467E+01 -.622E+00   -.304E+01 -.483E+01 0.624E+00   0.230E+00 0.120E+00 -.323E-02
   0.383E+01 0.805E+01 0.565E+00   -.537E+01 -.892E+01 -.566E+00   0.119E+01 0.649E+00 0.286E-02
   -.979E+01 0.338E+02 0.513E+00   0.112E+02 -.367E+02 -.493E+00   -.155E+01 0.335E+01 -.192E-01
   0.120E+02 -.291E+02 0.747E+00   -.111E+02 0.342E+02 -.736E+00   -.892E+00 -.479E+01 -.101E-01
   0.626E+01 -.518E+01 -.327E+00   -.730E+01 0.382E+01 0.332E+00   0.912E+00 0.922E+00 -.761E-02
   0.227E+01 0.139E+01 -.832E+00   -.358E+01 -.174E+01 0.826E+00   0.972E+00 0.537E+00 0.253E-02
   0.121E+02 0.558E+01 -.451E+00   -.114E+02 -.656E+01 0.450E+00   -.467E+00 0.927E+00 -.256E-02
   0.288E+01 -.203E+01 -.122E+01   -.329E+01 0.157E+01 0.122E+01   0.437E+00 0.427E+00 -.568E-02
   0.265E+01 0.591E+00 -.787E+00   -.251E+01 -.675E+00 0.785E+00   -.332E-01 0.748E-01 0.142E-02
   0.530E+01 0.331E+01 -.101E+01   -.549E+01 -.360E+01 0.100E+01   0.161E+00 0.218E+00 -.125E-02
   -.405E+01 0.688E+00 -.113E+01   0.393E+01 -.822E+00 0.113E+01   0.331E-01 0.124E+00 -.440E-02
   -.800E+01 0.742E+00 -.808E+00   0.816E+01 -.903E+00 0.809E+00   -.157E+00 0.104E+00 -.227E-02
   -.788E+00 0.683E+01 -.108E+01   0.778E+00 -.700E+01 0.107E+01   -.312E-01 0.189E+00 -.880E-04
   -.462E+01 0.879E+01 -.537E+00   0.526E+01 -.908E+01 0.543E+00   -.495E+00 0.277E+00 -.530E-02
   -.789E+00 0.384E+01 -.984E+00   0.866E+00 -.421E+01 0.984E+00   -.559E-01 0.406E+00 -.276E-02
   -.162E+01 0.270E+01 -.133E+01   0.154E+01 -.273E+01 0.133E+01   -.634E-01 0.819E-01 -.168E-02
   -.873E+00 0.285E+01 -.140E+01   0.123E+01 -.286E+01 0.140E+01   -.261E+00 -.853E-01 -.281E-02
   0.228E+01 -.792E+01 -.253E+00   -.264E+01 0.842E+01 0.254E+00   0.323E+00 -.474E+00 -.117E-02
   -.281E+01 -.234E+01 -.686E+00   0.288E+01 0.263E+01 0.682E+00   -.163E+00 -.312E+00 0.200E-02
   0.653E+01 -.123E+01 -.167E+01   -.639E+01 0.142E+01 0.167E+01   -.475E-01 -.154E+00 -.171E-02
   0.960E+00 -.386E+01 -.109E+01   -.102E+01 0.408E+01 0.110E+01   0.133E+00 -.128E+00 -.196E-03
   0.313E+01 -.475E+01 -.429E+00   -.374E+01 0.476E+01 0.431E+00   0.715E+00 -.817E-01 0.808E-03
   0.396E+01 -.464E+00 -.498E+00   -.420E+01 0.856E+00 0.494E+00   0.162E+00 -.291E+00 0.424E-02
   -.569E-01 -.272E+01 -.955E+00   0.452E-02 0.273E+01 0.955E+00   -.392E-01 -.738E-01 0.195E-02
   0.743E-01 -.597E+01 -.581E+00   -.213E+00 0.600E+01 0.580E+00   0.850E-01 -.697E-01 0.279E-02
   0.553E+01 0.912E+00 -.103E+01   -.585E+01 -.901E+00 0.103E+01   0.282E+00 0.736E-01 0.152E-02
   0.250E+01 -.207E+01 -.696E+00   -.260E+01 0.190E+01 0.699E+00   0.153E+00 0.894E-01 -.183E-02
   -.703E+01 0.820E-01 -.555E+00   0.716E+01 -.733E-01 0.556E+00   -.139E+00 0.506E-01 -.348E-03
   -.345E+02 0.331E+02 0.232E+01   0.400E+02 -.330E+02 -.240E+01   -.621E+01 -.638E-01 0.888E-01
   -.393E+02 -.333E+02 0.657E+00   0.472E+02 0.329E+02 -.765E+00   -.821E+01 0.257E+00 0.102E+00
   0.344E+02 -.438E+01 0.135E+01   -.379E+02 0.929E+01 -.137E+01   0.390E+01 -.536E+01 0.298E-01
   0.360E+02 0.161E+02 0.937E+00   -.453E+02 -.155E+02 -.984E+00   0.960E+01 -.402E+00 0.463E-01
   0.331E+02 0.100E+02 -.628E+00   -.363E+02 -.158E+02 0.619E+00   0.363E+01 0.601E+01 0.804E-02
   0.540E+02 -.318E+02 0.250E+01   -.740E+02 0.336E+02 -.265E+01   0.192E+02 -.189E+01 0.147E+00
   -.912E+02 -.380E+01 0.891E+01   0.111E+03 0.415E+01 -.933E+01   -.196E+02 -.395E+00 0.401E+00
   -.136E+02 0.197E+02 0.795E+01   0.104E+02 -.206E+02 -.791E+01   0.358E+01 0.163E+01 -.469E-01
   -.239E+02 -.253E+02 0.569E+01   0.237E+02 0.259E+02 -.562E+01   -.192E+00 -.952E+00 -.636E-01
 -----------------------------------------------------------------------------------------------
   -.348E+01 -.853E+00 -.708E+00   -.181E-12 0.263E-12 0.888E-15   0.366E+01 0.100E+01 0.643E+00
 
 
 POSITION                                       TOTAL-FORCE (eV/Angst)
 -----------------------------------------------------------------------------------
      2.94356     12.34298      9.83241         0.140289      0.018300     -0.000725
      0.74192      1.22801      9.83555        -0.011047     -0.052672      0.000014
      1.47671     12.34428      9.83480        -0.144353     -0.005955      0.000603
      3.66533      1.25407      9.82801        -0.070151     -0.079507      0.002566
      2.90648      2.49443      9.82726        -0.016510      0.075410      0.001770
      0.67885      3.68310      9.83775         0.157616      0.052689     -0.001620
      1.45381      2.46945      9.83362        -0.026425      0.090377      0.000296
      2.74788      4.92575      9.82852         0.080649     -0.538631     -0.003472
      0.63424      6.17341      9.84143        -0.092420      0.001425     -0.003863
      1.34049      4.93028      9.83775        -0.035381     -0.109003     -0.005166
      3.43446      6.17567      9.82282         1.227950      0.059101     -0.018094
      2.74065      7.42453      9.83295         0.052608      0.427873     -0.006483
      0.67013      8.66162      9.83986         0.117334     -0.098620     -0.000413
      1.33516      7.41530      9.84016        -0.017176      0.127853     -0.005889
      2.89414      9.84954      9.83389        -0.114632     -0.025495     -0.002884
      0.73336     11.11899      9.83685        -0.013295      0.062435      0.001127
      1.44247      9.87695      9.83718         0.049735     -0.061414      0.000396
      3.66081     11.08814      9.83291        -0.064183      0.070851     -0.002089
      7.29263      0.00610      9.83495         0.005763      0.010265     -0.003811
      5.13097      1.26586      9.82735         0.087166      0.087403      0.001801
      5.84314      0.00210      9.83212         0.041971     -0.027572     -0.001454
      8.03408      1.23310      9.83404         0.054471     -0.024374     -0.001817
      7.31624      2.46964      9.82777        -0.300734     -0.191469      0.001917
      8.06828      3.72455      9.82753        -0.219776      0.583869     -0.000359
      8.02229      6.14532      9.82653        -0.000267      0.017764     -0.000064
      8.05683      8.61964      9.83241        -0.083333     -0.400733     -0.002786
      7.32151      9.88852      9.83447        -0.305425      0.219994     -0.003023
      5.12857     11.07745      9.83285         0.121437     -0.005693     -0.003357
      8.03285     11.12319      9.83732         0.038414     -0.022516     -0.004043
     11.65055     -0.00092      9.83833         0.110923     -0.005153     -0.000308
      9.47328      1.22439      9.83739        -0.018770     -0.059566     -0.003557
     10.20458     -0.00022      9.83880        -0.095177     -0.004686     -0.002832
     12.37769      1.22452      9.83794        -0.018659     -0.055298     -0.000965
     11.63022      2.44873      9.83884        -0.039129      0.036901     -0.001824
      9.49072      3.69500      9.83416         0.111577      0.007970     -0.000380
     10.19916      2.45219      9.83746         0.015954      0.058645     -0.002799
     12.33191      3.68470      9.83951        -0.144912      0.050170     -0.001741
     11.61622      4.92419      9.83972         0.077373     -0.092212     -0.001623
      9.46606      6.16069      9.83315        -0.024183     -0.000100      0.000050
     10.19237      4.93135      9.83590        -0.099566     -0.044656     -0.001254
     12.30987      6.16935      9.84103         0.102019      0.028791     -0.001048
     11.60629      7.41187      9.83936         0.073336      0.074707      0.000504
      9.48131      8.64456      9.83549         0.136614     -0.085051      0.002277
     10.17997      7.40382      9.83605        -0.072515      0.090724      0.000630
     12.32314      8.65144      9.83936        -0.093620     -0.059739      0.001763
     11.62403      9.89012      9.83831        -0.047770     -0.052938      0.002171
      9.47104     11.11989      9.83856        -0.021635      0.089797     -0.002309
     10.19444      9.88565      9.83778         0.058972     -0.069800      0.000628
     12.37103     11.11503      9.83798        -0.020135      0.065831      0.001507
      3.55521      3.76659      9.82105        -0.986485      0.094207      0.013556
      3.54224      8.58044      9.82846        -0.674747     -0.142186     -0.000638
      5.88803      2.48706      9.82334         0.533714     -0.718074      0.009570
      7.31920      7.40101      9.82588         0.784132      0.177958      0.002130
      5.89645      9.86338      9.83197         0.632328      0.532155     -0.000549
      7.36885      4.90251      9.82167         0.800996     -0.301125      0.011270
      4.75691      6.17178      9.80627        -1.067345     -0.079047      0.018394
      5.41029      4.35927      9.81201        -0.105913      0.176274      0.009096
      5.42691      7.97865      9.81807        -0.567674      0.023545      0.009199
 -----------------------------------------------------------------------------------
    total drift:                               -0.005109     -0.003537     -0.001801


--------------------------------------------------------------------------------------------------------



  FREE ENERGIE OF THE ION-ELECTRON SYSTEM (eV)
  ---------------------------------------------------
  free  energy   TOTEN  =      -607.48723503 eV

  energy  without entropy=     -607.48723502  energy(sigma->0) =     -607.48723502
 


--------------------------------------------------------------------------------------------------------


    POTLOK:  cpu time    3.2989: real time    3.2989


--------------------------------------------------------------------------------------------------------


 stress matrix after NEB project (eV)
    -42.62701      0.53032      0.02463
      0.52954    -42.43586      0.00393
      0.02421      0.00385     -0.30256
  FORCES: max atom, RMS     1.229504    0.395694
  FORCE total and by dimension    3.013518    1.227950
  Stress total and by dimension   60.154119   42.627007
 writing wavefunctions
     LOOP+:  cpu time34639.2263: real time34650.6893
    4ORBIT:  cpu time    0.0000: real time    0.0000
 


 total charge     
 
# of ion       s       p       d       tot
------------------------------------------
    1        0.856   1.720   0.000   2.576
    2        0.862   1.752   0.000   2.614
    3        0.860   1.735   0.000   2.595
    4        0.858   1.707   0.000   2.565
    5        0.857   1.732   0.000   2.589
    6        0.867   1.773   0.000   2.640
    7        0.862   1.738   0.000   2.599
    8        0.884   1.799   0.000   2.682
    9        0.870   1.787   0.000   2.657
   10        0.876   1.788   0.000   2.664
   11        0.895   1.754   0.000   2.649
   12        0.884   1.803   0.000   2.687
   13        0.867   1.772   0.000   2.639
   14        0.876   1.794   0.000   2.670
   15        0.858   1.732   0.000   2.590
   16        0.863   1.753   0.000   2.615
   17        0.863   1.739   0.000   2.601
   18        0.858   1.703   0.000   2.561
   19        0.861   1.747   0.000   2.608
   20        0.854   1.717   0.000   2.571
   21        0.859   1.716   0.000   2.575
   22        0.865   1.753   0.000   2.618
   23        0.865   1.745   0.000   2.610
   24        0.866   1.718   0.000   2.584
   25        0.852   1.691   0.000   2.544
   26        0.870   1.733   0.000   2.603
   27        0.871   1.738   0.000   2.608
   28        0.854   1.713   0.000   2.567
   29        0.866   1.758   0.000   2.625
   30        0.865   1.761   0.000   2.626
   31        0.865   1.766   0.000   2.630
   32        0.865   1.759   0.000   2.624
   33        0.863   1.754   0.000   2.616
   34        0.866   1.769   0.000   2.635
   35        0.867   1.787   0.000   2.655
   36        0.866   1.764   0.000   2.630
   37        0.868   1.765   0.000   2.634
   38        0.866   1.777   0.000   2.643
   39        0.864   1.761   0.000   2.625
   40        0.872   1.765   0.000   2.637
   41        0.871   1.783   0.000   2.654
   42        0.866   1.769   0.000   2.635
   43        0.869   1.773   0.000   2.642
   44        0.866   1.769   0.000   2.636
   45        0.867   1.767   0.000   2.634
   46        0.866   1.768   0.000   2.634
   47        0.866   1.763   0.000   2.628
   48        0.866   1.761   0.000   2.627
   49        0.863   1.755   0.000   2.618
   50        0.875   1.656   0.000   2.531
   51        0.880   1.664   0.000   2.544
   52        0.869   1.658   0.000   2.527
   53        0.870   1.669   0.000   2.539
   54        0.870   1.658   0.000   2.529
   55        1.234   2.644   0.000   3.878
   56        1.258   2.601   0.000   3.859
   57        0.495   0.647   6.038   7.180
   58        0.520   0.704   6.016   7.240
--------------------------------------------------
tot         50.295 100.846  12.054 163.196
 


 magnetization (x)
 
# of ion       s       p       d       tot
------------------------------------------
    1        0.003   0.026   0.000   0.029
    2        0.002   0.022   0.000   0.023
    3       -0.002  -0.020   0.000  -0.021
    4       -0.004  -0.053   0.000  -0.057
    5        0.003   0.028   0.000   0.031
    6        0.002   0.019   0.000   0.021
    7       -0.003  -0.025   0.000  -0.027
    8        0.003   0.039   0.000   0.042
    9        0.003   0.038   0.000   0.041
   10       -0.003  -0.029   0.000  -0.032
   11        0.001  -0.016   0.000  -0.015
   12        0.003   0.037   0.000   0.040
   13        0.002   0.019   0.000   0.021
   14       -0.003  -0.028   0.000  -0.030
   15        0.003   0.029   0.000   0.032
   16        0.002   0.022   0.000   0.024
   17       -0.002  -0.024   0.000  -0.027
   18       -0.004  -0.052   0.000  -0.056
   19        0.002   0.026   0.000   0.028
   20        0.003   0.033   0.000   0.036
   21       -0.003  -0.025   0.000  -0.028
   22       -0.003  -0.029   0.000  -0.031
   23        0.005   0.043   0.000   0.048
   24       -0.001  -0.022   0.000  -0.023
   25       -0.001  -0.011   0.000  -0.012
   26        0.001  -0.017   0.000  -0.016
   27        0.006   0.043   0.000   0.049
   28        0.003   0.033   0.000   0.036
   29       -0.002  -0.028   0.000  -0.031
   30        0.001   0.017   0.000   0.019
   31        0.002   0.031   0.000   0.033
   32       -0.002  -0.019   0.000  -0.020
   33       -0.002  -0.020   0.000  -0.022
   34        0.002   0.022   0.000   0.024
   35        0.002   0.021   0.000   0.023
   36       -0.002  -0.025   0.000  -0.027
   37       -0.002  -0.019   0.000  -0.021
   38        0.002   0.024   0.000   0.026
   39        0.001   0.021   0.000   0.022
   40       -0.001  -0.014   0.000  -0.015
   41       -0.002  -0.019   0.000  -0.020
   42        0.002   0.024   0.000   0.026
   43        0.002   0.020   0.000   0.022
   44       -0.001  -0.014   0.000  -0.016
   45       -0.002  -0.019   0.000  -0.021
   46        0.002   0.022   0.000   0.024
   47        0.002   0.031   0.000   0.033
   48       -0.002  -0.024   0.000  -0.026
   49       -0.002  -0.020   0.000  -0.022
   50       -0.020  -0.104   0.000  -0.124
   51       -0.015  -0.080   0.000  -0.095
   52       -0.017  -0.102   0.000  -0.120
   53       -0.005   0.012   0.000   0.007
   54       -0.016  -0.097   0.000  -0.114
   55        0.001   0.048   0.000   0.049
   56       -0.001   0.051   0.000   0.050
   57        0.061   0.019   2.890   2.970
   58        0.062   0.030   2.878   2.970
--------------------------------------------------
tot          0.065  -0.102   5.768   5.731
 

 total amount of memory used by VASP MPI-rank0   170158. kBytes
=======================================================================

   base      :      30000. kBytes
   nonl-proj :       4591. kBytes
   fftplans  :      12934. kBytes
   grid      :      30670. kBytes
   one-center:         62. kBytes
   HF        :         23. kBytes
   nonlr-proj:      14862. kBytes
   wavefun   :      77016. kBytes
 
  
  
 General timing and accounting informations for this job:
 ========================================================
  
                  Total CPU time used (sec):    34718.289
                            User time (sec):    34670.926
                          System time (sec):       47.362
                         Elapsed time (sec):    34731.212
  
                   Maximum memory used (kb):      409856.
                   Average memory used (kb):           0.
  
                          Minor page faults:       386750
                          Major page faults:            0
                 Voluntary context switches:         1997
