 vasp.5.4.4.18Apr17-6-g9f103f2a35 (build Feb 25 2019 10:51:38) complex          
  
 executed on             LinuxIFC date 2021.06.16  07:00:29
 running on   80 total cores
 distrk:  each k-point on   40 cores,    2 groups
 distr:  one band on NCORES_PER_BAND=  40 cores,    1 groups


--------------------------------------------------------------------------------------------------------


 INCAR:
 POTCAR:    PAW_PBE C 08Apr2002                   
 POTCAR:    PAW_PBE N 08Apr2002                   
 POTCAR:    PAW_PBE Co 02Aug2007                  
 POTCAR:    PAW_PBE Fe 06Sep2000                  

 ----------------------------------------------------------------------------- 
|                                                                             |
|           W    W    AA    RRRRR   N    N  II  N    N   GGGG   !!!           |
|           W    W   A  A   R    R  NN   N  II  NN   N  G    G  !!!           |
|           W    W  A    A  R    R  N N  N  II  N N  N  G       !!!           |
|           W WW W  AAAAAA  RRRRR   N  N N  II  N  N N  G  GGG   !            |
|           WW  WW  A    A  R   R   N   NN  II  N   NN  G    G                |
|           W    W  A    A  R    R  N    N  II  N    N   GGGG   !!!           |
|                                                                             |
|      For optimal performance we recommend to set                            |
|        NCORE= 4 - approx SQRT( number of cores)                             |
|      NCORE specifies how many cores store one orbital (NPAR=cpu/NCORE).     |
|      This setting can  greatly improve the performance of VASP for DFT.     |
|      The default,   NCORE=1            might be grossly inefficient         |
|      on modern multi-core architectures or massively parallel machines.     |
|      Do your own testing !!!!                                               |
|      Unfortunately you need to use the default for GW and RPA calculations. |
|      (for HF NCORE is supported but not extensively tested yet)             |
|                                                                             |
 ----------------------------------------------------------------------------- 


 ----------------------------------------------------------------------------- 
|                                                                             |
|           W    W    AA    RRRRR   N    N  II  N    N   GGGG   !!!           |
|           W    W   A  A   R    R  NN   N  II  NN   N  G    G  !!!           |
|           W    W  A    A  R    R  N N  N  II  N N  N  G       !!!           |
|           W WW W  AAAAAA  RRRRR   N  N N  II  N  N N  G  GGG   !            |
|           WW  WW  A    A  R   R   N   NN  II  N   NN  G    G                |
|           W    W  A    A  R    R  N    N  II  N    N   GGGG   !!!           |
|                                                                             |
|      You have enabled k-point parallelism (KPAR>1).                         |
|      This developmental code was originally  written by Paul Kent at ORNL,  |
|      and carefully double checked in Vienna.                                |
|      GW as well as linear response parallelism added by Martijn Marsman     |
|      and Georg Kresse.                                                      |
|      Carefully verify results versus KPAR=1.                                |
|      Report problems to Paul Kent and Vienna.                               |
|                                                                             |
 ----------------------------------------------------------------------------- 

 POTCAR:    PAW_PBE C 08Apr2002                   
   VRHFIN =C: s2p2                                                              
   LEXCH  = PE                                                                  
   EATOM  =   147.1560 eV,   10.8157 Ry                                         
                                                                                
   TITEL  = PAW_PBE C 08Apr2002                                                 
   LULTRA =        F    use ultrasoft PP ?                                      
   IUNSCR =        1    unscreen: 0-lin 1-nonlin 2-no                           
   RPACOR =    1.200    partial core radius                                     
   POMASS =   12.011; ZVAL   =    4.000    mass and valenz                      
   RCORE  =    1.500    outmost cutoff radius                                   
   RWIGS  =    1.630; RWIGS  =    0.863    wigner-seitz radius (au A)           
   ENMAX  =  400.000; ENMIN  =  300.000 eV                                      
   ICORE  =        2    local potential                                         
   LCOR   =        T    correct aug charges                                     
   LPAW   =        T    paw PP                                                  
   EAUG   =  644.873                                                            
   DEXC   =    0.000                                                            
   RMAX   =    1.529    core radius for proj-oper                               
   RAUG   =    1.300    factor for augmentation sphere                          
   RDEP   =    1.501    radius for radial grids                                 
   RDEPT  =    1.300    core radius for aug-charge                              
                                                                                
   Atomic configuration                                                         
    4 entries                                                                   
     n  l   j            E        occ.                                          
     1  0  0.50      -273.3789   2.0000                                         
     2  0  0.50       -13.7508   2.0000                                         
     2  1  0.50        -5.2854   2.0000                                         
     3  2  1.50        -5.4423   0.0000                                         
   Description                                                                  
     l       E           TYP  RCUT    TYP  RCUT                                 
     0    -13.7508458     23  1.200                                             
     0     -8.2022199     23  1.200                                             
     1     -5.2854383     23  1.500                                             
     1     34.0145650     23  1.500                                             
     2     -5.4423304      7  1.500                                             
  local pseudopotential read in
  partial core-charges read in
  partial kinetic energy density read in
  atomic valenz-charges read in
  non local Contribution for L=           0  read in
    real space projection operators read in
  non local Contribution for L=           0  read in
    real space projection operators read in
  non local Contribution for L=           1  read in
    real space projection operators read in
  non local Contribution for L=           1  read in
    real space projection operators read in
    PAW grid and wavefunctions read in
 
   number of l-projection  operators is LMAX  =           4
   number of lm-projection operators is LMMAX =           8
 
 POTCAR:    PAW_PBE N 08Apr2002                   
   VRHFIN =N: s2p3                                                              
   LEXCH  = PE                                                                  
   EATOM  =   264.5486 eV,   19.4438 Ry                                         
                                                                                
   TITEL  = PAW_PBE N 08Apr2002                                                 
   LULTRA =        F    use ultrasoft PP ?                                      
   IUNSCR =        1    unscreen: 0-lin 1-nonlin 2-no                           
   RPACOR =    1.200    partial core radius                                     
   POMASS =   14.001; ZVAL   =    5.000    mass and valenz                      
   RCORE  =    1.500    outmost cutoff radius                                   
   RWIGS  =    1.400; RWIGS  =    0.741    wigner-seitz radius (au A)           
   ENMAX  =  400.000; ENMIN  =  300.000 eV                                      
   ICORE  =        2    local potential                                         
   LCOR   =        T    correct aug charges                                     
   LPAW   =        T    paw PP                                                  
   EAUG   =  627.112                                                            
   DEXC   =    0.000                                                            
   RMAX   =    1.529    core radius for proj-oper                               
   RAUG   =    1.300    factor for augmentation sphere                          
   RDEP   =    1.514    radius for radial grids                                 
   RDEPT  =    1.338    core radius for aug-charge                              
                                                                                
   Atomic configuration                                                         
    4 entries                                                                   
     n  l   j            E        occ.                                          
     1  0  0.50      -384.7179   2.0000                                         
     2  0  0.50       -18.5828   2.0000                                         
     2  1  0.50        -7.0898   3.0000                                         
     3  2  1.50        -6.8029   0.0000                                         
   Description                                                                  
     l       E           TYP  RCUT    TYP  RCUT                                 
     0    -18.5828119     23  1.200                                             
     0    -13.5018863     23  1.200                                             
     1     -7.0897853     23  1.500                                             
     1      9.5240782     23  1.500                                             
     2     -6.8029130      7  1.500                                             
  local pseudopotential read in
  partial core-charges read in
  partial kinetic energy density read in
  atomic valenz-charges read in
  non local Contribution for L=           0  read in
    real space projection operators read in
  non local Contribution for L=           0  read in
    real space projection operators read in
  non local Contribution for L=           1  read in
    real space projection operators read in
  non local Contribution for L=           1  read in
    real space projection operators read in
    PAW grid and wavefunctions read in
 
   number of l-projection  operators is LMAX  =           4
   number of lm-projection operators is LMMAX =           8
 
 POTCAR:    PAW_PBE Co 02Aug2007                  
   VRHFIN =Co: d8 s1                                                            
   LEXCH  = PE                                                                  
   EATOM  =   813.3670 eV,   59.7808 Ry                                         
                                                                                
   TITEL  = PAW_PBE Co 02Aug2007                                                
   LULTRA =        F    use ultrasoft PP ?                                      
   IUNSCR =        1    unscreen: 0-lin 1-nonlin 2-no                           
   RPACOR =    2.000    partial core radius                                     
   POMASS =   58.933; ZVAL   =    9.000    mass and valenz                      
   RCORE  =    2.300    outmost cutoff radius                                   
   RWIGS  =    2.460; RWIGS  =    1.302    wigner-seitz radius (au A)           
   ENMAX  =  267.968; ENMIN  =  200.976 eV                                      
   RCLOC  =    1.203    cutoff for local pot                                    
   LCOR   =        T    correct aug charges                                     
   LPAW   =        T    paw PP                                                  
   EAUG   =  477.818                                                            
   DEXC   =    0.000                                                            
   RMAX   =    2.360    core radius for proj-oper                               
   RAUG   =    1.300    factor for augmentation sphere                          
   RDEP   =    2.393    radius for radial grids                                 
   RDEPT  =    1.864    core radius for aug-charge                              
                                                                                
   Atomic configuration                                                         
    9 entries                                                                   
     n  l   j            E        occ.                                          
     1  0  0.50     -7587.6674   2.0000                                         
     2  0  0.50      -893.6084   2.0000                                         
     2  1  1.50      -764.5805   6.0000                                         
     3  0  0.50       -97.5973   2.0000                                         
     3  1  1.50       -60.9648   6.0000                                         
     3  2  2.50        -4.2382   8.0000                                         
     4  0  0.50        -4.3746   1.0000                                         
     4  1  1.50        -4.0817   0.0000                                         
     4  3  2.50        -1.3606   0.0000                                         
   Description                                                                  
     l       E           TYP  RCUT    TYP  RCUT                                 
     2     -4.2382362     23  2.300                                             
     2     -5.5988188     23  2.300                                             
     0     -4.3745797     23  2.300                                             
     0      5.7660125     23  2.300                                             
     1     -2.7211652     23  2.300                                             
     1     16.9860234     23  2.300                                             
  local pseudopotential read in
  partial core-charges read in
  partial kinetic energy density read in
  atomic valenz-charges read in
  non local Contribution for L=           2  read in
    real space projection operators read in
  non local Contribution for L=           2  read in
    real space projection operators read in
  non local Contribution for L=           0  read in
    real space projection operators read in
  non local Contribution for L=           0  read in
    real space projection operators read in
  non local Contribution for L=           1  read in
    real space projection operators read in
  non local Contribution for L=           1  read in
    real space projection operators read in
    PAW grid and wavefunctions read in
 
   number of l-projection  operators is LMAX  =           6
   number of lm-projection operators is LMMAX =          18
 
 POTCAR:    PAW_PBE Fe 06Sep2000                  
   VRHFIN =Fe:  d7 s1                                                           
   LEXCH  = PE                                                                  
   EATOM  =   594.3153 eV,   43.6809 Ry                                         
                                                                                
   TITEL  = PAW_PBE Fe 06Sep2000                                                
   LULTRA =        F    use ultrasoft PP ?                                      
   IUNSCR =        1    unscreen: 0-lin 1-nonlin 2-no                           
   RPACOR =    2.000    partial core radius                                     
   POMASS =   55.847; ZVAL   =    8.000    mass and valenz                      
   RCORE  =    2.300    outmost cutoff radius                                   
   RWIGS  =    2.460; RWIGS  =    1.302    wigner-seitz radius (au A)           
   ENMAX  =  267.882; ENMIN  =  200.911 eV                                      
   RCLOC  =    1.701    cutoff for local pot                                    
   LCOR   =        T    correct aug charges                                     
   LPAW   =        T    paw PP                                                  
   EAUG   =  511.368                                                            
   DEXC   =    0.000                                                            
   RMAX   =    2.356    core radius for proj-oper                               
   RAUG   =    1.300    factor for augmentation sphere                          
   RDEP   =    2.442    radius for radial grids                                 
   RDEPT  =    1.890    core radius for aug-charge                              
                                                                                
   Atomic configuration                                                         
    9 entries                                                                   
     n  l   j            E        occ.                                          
     1  0  0.50     -6993.8440   2.0000                                         
     2  0  0.50      -814.6047   2.0000                                         
     2  1  1.50      -693.3689   6.0000                                         
     3  0  0.50       -89.4732   2.0000                                         
     3  1  1.50       -55.6373   6.0000                                         
     3  2  2.50        -3.8151   7.0000                                         
     4  0  0.50        -4.2551   1.0000                                         
     4  1  1.50        -3.4015   0.0000                                         
     4  3  2.50        -1.3606   0.0000                                         
   Description                                                                  
     l       E           TYP  RCUT    TYP  RCUT                                 
     2     -3.8151135     23  2.300                                             
     2     -5.1756961     23  2.300                                             
     0     -4.2550963     23  2.300                                             
     0      7.2035603     23  2.300                                             
     1     -2.7211652     23  2.300                                             
     1     18.4316424     23  2.300                                             
  local pseudopotential read in
  partial core-charges read in
  partial kinetic energy density read in
  atomic valenz-charges read in
  non local Contribution for L=           2  read in
    real space projection operators read in
  non local Contribution for L=           2  read in
    real space projection operators read in
  non local Contribution for L=           0  read in
    real space projection operators read in
  non local Contribution for L=           0  read in
    real space projection operators read in
  non local Contribution for L=           1  read in
    real space projection operators read in
  non local Contribution for L=           1  read in
    real space projection operators read in
    PAW grid and wavefunctions read in
 
   number of l-projection  operators is LMAX  =           6
   number of lm-projection operators is LMMAX =          18
 

 ----------------------------------------------------------------------------- 
|                                                                             |
|  ADVICE TO THIS USER RUNNING 'VASP/VAMP'   (HEAR YOUR MASTER'S VOICE ...):  |
|                                                                             |
|      You have a (more or less) 'large supercell' and for larger cells       |
|      it might be more efficient to use real space projection opertators     |
|      So try LREAL= Auto  in the INCAR   file.                               |
|      Mind:          For very  accurate calculation you might also keep the  |
|      reciprocal projection scheme          (i.e. LREAL=.FALSE.)             |
|                                                                             |
 ----------------------------------------------------------------------------- 

  PAW_PBE C 08Apr2002                   :
 energy of atom  1       EATOM= -147.1560
 kinetic energy error for atom=    0.0076 (will be added to EATOM!!)
  PAW_PBE N 08Apr2002                   :
 energy of atom  2       EATOM= -264.5486
 kinetic energy error for atom=    0.0138 (will be added to EATOM!!)
  PAW_PBE Co 02Aug2007                  :
 energy of atom  3       EATOM= -813.3670
 kinetic energy error for atom=    0.0028 (will be added to EATOM!!)
  PAW_PBE Fe 06Sep2000                  :
 energy of atom  4       EATOM= -594.3153
 kinetic energy error for atom=    0.0026 (will be added to EATOM!!)
 
 
 POSCAR:  C  N Co Fe                             
  positions in cartesian coordinates
  No initial velocities read in
 exchange correlation table for  LEXCH =        8
   RHO(1)=    0.500       N(1)  =     2000
   RHO(2)=  100.500       N(2)  =     4000

 VTST: version 3.2, (02/03/18)

 CHAIN: initializing optimizer
 
 OPT: Using VASP Conjugate-Gradient optimizer
 CHAIN: Read ICHAIN            0
 
 POSCAR:  C  N Co Fe                             
  positions in cartesian coordinates
  No initial velocities read in
 


--------------------------------------------------------------------------------------------------------


 ion  position               nearest neighbor table
   1  0.228  1.000  0.500-   3 1.46   4 1.46  18 1.46
   2  0.059  0.100  0.500-   7 1.42   3 1.43  33 1.45
   3  0.116  1.000  0.500-  16 1.43   2 1.43   1 1.46
   4  0.283  0.105  0.500-  20 1.45   5 1.46   1 1.46
   5  0.224  0.206  0.500-  50 1.38   7 1.45   4 1.46
   6  0.051  0.299  0.500-  10 1.41  37 1.42   7 1.43
   7  0.112  0.201  0.500-   2 1.42   6 1.43   5 1.45
   8  0.210  0.399  0.500-  50 1.38  10 1.40  11 1.41
   9  0.048  0.500  0.500-  41 1.41  14 1.41  10 1.42
  10  0.103  0.399  0.500-   8 1.40   6 1.41   9 1.42
  11  0.264  0.499  0.499-  54 1.35   8 1.41  12 1.41
  12  0.210  0.600  0.500-  51 1.38  14 1.40  11 1.41
  13  0.051  0.701  0.500-  14 1.41  45 1.42  17 1.43
  14  0.103  0.600  0.500-  12 1.40  13 1.41   9 1.41
  15  0.223  0.794  0.500-  51 1.39  17 1.45  18 1.46
  16  0.059  0.900  0.500-  17 1.42   3 1.43  49 1.45
  17  0.112  0.799  0.500-  16 1.42  13 1.43  15 1.45
  18  0.283  0.895  0.500-  28 1.46  15 1.46   1 1.46
  19  0.558  0.000  0.500-  22 1.42  29 1.42  21 1.43
  20  0.395  0.105  0.500-  52 1.40   4 1.45  21 1.45
  21  0.448  0.000  0.500-  19 1.43  28 1.45  20 1.45
  22  0.614  0.100  0.500-  23 1.42  19 1.42  31 1.43
  23  0.558  0.200  0.500-  52 1.38  22 1.42  24 1.44
  24  0.613  0.302  0.500-  53 1.40  35 1.42  23 1.44
  25  0.607  0.500  0.499-  53 1.40  55 1.40  39 1.45
  26  0.613  0.698  0.500-  55 1.40  43 1.41  27 1.44
  27  0.559  0.801  0.500-  56 1.38  29 1.42  26 1.44
  28  0.395  0.896  0.500-  56 1.40  21 1.45  18 1.46
  29  0.614  0.900  0.500-  27 1.42  19 1.42  47 1.43
  30  0.891  0.000  0.500-  49 1.42  33 1.42  32 1.44
  31  0.724  0.100  0.500-  36 1.41  32 1.42  22 1.43
  32  0.781  0.000  0.500-  47 1.42  31 1.42  30 1.44
  33  0.947  0.100  0.500-  30 1.42  34 1.43   2 1.45
  34  0.889  0.199  0.500-  37 1.41  33 1.43  36 1.43
  35  0.722  0.300  0.500-  24 1.42  40 1.42  36 1.43
  36  0.778  0.199  0.500-  31 1.41  35 1.43  34 1.43
  37  0.942  0.299  0.500-  34 1.41   6 1.42  38 1.43
  38  0.885  0.399  0.500-  41 1.42  40 1.42  37 1.43
  39  0.719  0.500  0.500-  40 1.43  44 1.43  25 1.45
  40  0.776  0.400  0.500-  35 1.42  38 1.42  39 1.43
  41  0.940  0.500  0.500-   9 1.41  42 1.42  38 1.42
  42  0.885  0.600  0.500-  41 1.42  44 1.42  45 1.43
  43  0.722  0.701  0.500-  26 1.41  44 1.42  48 1.43
  44  0.776  0.600  0.500-  43 1.42  42 1.42  39 1.43
  45  0.942  0.701  0.500-  46 1.41  13 1.42  42 1.43
  46  0.889  0.801  0.500-  45 1.41  49 1.43  48 1.43
  47  0.725  0.901  0.500-  48 1.41  32 1.42  29 1.43
  48  0.779  0.801  0.500-  47 1.41  46 1.43  43 1.43
  49  0.947  0.900  0.500-  30 1.42  46 1.43  16 1.45
  50  0.271  0.307  0.499-   8 1.38   5 1.38  57 1.91
  51  0.270  0.692  0.500-  12 1.38  15 1.39  58 1.93
  52  0.452  0.202  0.499-  23 1.38  20 1.40  57 1.94
  53  0.555  0.400  0.499-  25 1.40  24 1.40  57 1.95
  54  0.368  0.498  0.499-  11 1.35  57 1.85  58 1.88
  55  0.557  0.601  0.499-  25 1.40  26 1.40  58 1.95
  56  0.452  0.799  0.500-  27 1.38  28 1.40  58 1.96
  57  0.411  0.354  0.499-  54 1.85  50 1.91  52 1.94  53 1.95
  58  0.412  0.644  0.499-  54 1.88  51 1.93  55 1.95  56 1.96
 
  LATTYP: Found a triclinic cell.
 ALAT       =    12.9809000000
 B/A-ratio  =     1.8369804789
 C/A-ratio  =     0.9427774654
 COS(alpha) =     0.0003663821
 COS(beta)  =     0.0006649704
 COS(gamma) =     0.5446877581
  
  Lattice vectors:
  
 A1 = ( -12.9809000000,   0.0000000000,   0.0000000000)
 A2 = ( -12.9884390305,  -0.0000996955, -19.9978985787)
 A3 = (  -0.0081379742, -12.2380972942,   0.0000000000)


Analysis of symmetry for initial positions (statically):
=====================================================================
 Subroutine PRICEL returns:
 Original cell was already a primitive cell.
 

 Routine SETGRP: Setting up the symmetry group for a 
 triclinic supercell.


 Subroutine GETGRP returns: Found  1 space group operations
 (whereof  1 operations were pure point group operations)
 out of a pool of  2 trial point group operations.


The static configuration has the point symmetry C_1 .


Analysis of symmetry for dynamics (positions and initial velocities):
=====================================================================
 Subroutine PRICEL returns:
 Original cell was already a primitive cell.
 

 Routine SETGRP: Setting up the symmetry group for a 
 triclinic supercell.


 Subroutine GETGRP returns: Found  1 space group operations
 (whereof  1 operations were pure point group operations)
 out of a pool of  2 trial point group operations.


The dynamic configuration has the point symmetry C_1 .


Analysis of structural, dynamic, and magnetic symmetry:
=====================================================================
 Subroutine PRICEL returns:
 Original cell was already a primitive cell.
 

 Routine SETGRP: Setting up the symmetry group for a 
 triclinic supercell.


 Subroutine GETGRP returns: Found  1 space group operations
 (whereof  1 operations were pure point group operations)
 out of a pool of  2 trial point group operations.


The magnetic configuration has the point symmetry C_1 .


 Subroutine INISYM returns: Found  1 space group operations
 (whereof  1 operations are pure point group operations),
 and found     1 'primitive' translations

 
 
 KPOINTS: KPOINTS created by Atomic Simulation Env

Automatic generation of k-mesh.
Space group operators:
 irot       det(A)        alpha          n_x          n_y          n_z        tau_x        tau_y        tau_z
    1     1.000000     0.000001     1.000000     0.000000     0.000000     0.000000     0.000000     0.000000
 
 Subroutine IBZKPT returns following result:
 ===========================================
 
 Found      2 irreducible k-points:
 
 Following reciprocal coordinates:
            Coordinates               Weight
  0.250000  0.250000  0.000000      2.000000
 -0.250000  0.250000 -0.000000      2.000000
 
 Following cartesian coordinates:
            Coordinates               Weight
  0.019259  0.020415 -0.000007      2.000000
 -0.019259  0.020441  0.000007      2.000000
 
 
 Subroutine IBZKPT_HF returns following result:
 ==============================================
 
 Found      4 k-points in 1st BZ
 the following      4 k-points will be used (e.g. in the exchange kernel)
 Following reciprocal coordinates:   # in IRBZ
  0.250000  0.250000  0.000000    0.25000000   1 t-inv F
 -0.250000  0.250000 -0.000000    0.25000000   2 t-inv F
 -0.250000 -0.250000 -0.000000    0.25000000   1 t-inv T
  0.250000 -0.250000  0.000000    0.25000000   2 t-inv T


--------------------------------------------------------------------------------------------------------




 Dimension of arrays:
   k-points           NKPTS =      2   k-points in BZ     NKDIM =      4   number of bands    NBANDS=    158
   number of dos      NEDOS =    301   number of ions     NIONS =     58
   non local maximal  LDIM  =      6   non local SUM 2l+1 LMDIM =     18
   total plane-waves  NPLWV = ******
   max r-space proj   IRMAX =      1   max aug-charges    IRDMAX=  16287
   dimension x,y,z NGX =    96 NGY =   90 NGZ =  150
   dimension x,y,z NGXF=   192 NGYF=  180 NGZF=  300
   support grid    NGXF=   192 NGYF=  180 NGZF=  300
   ions per type =              49   7   1   1
   NGX,Y,Z   is equivalent  to a cutoff of  12.29, 12.23, 12.47 a.u.
   NGXF,Y,Z  is equivalent  to a cutoff of  24.59, 24.45, 24.94 a.u.

 SYSTEM =  unknown system                          
 POSCAR =   C  N Co Fe                             

 Startparameter for this run:
   NWRITE =      2    write-flag & timer
   PREC   = accura    normal or accurate (medium, high low for compatibility)
   ISTART =      1    job   : 0-new  1-cont  2-samecut
   ICHARG =      0    charge: 1-file 2-atom 10-const
   ISPIN  =      2    spin polarized calculation?
   LNONCOLLINEAR =      F non collinear calculations
   LSORBIT =      F    spin-orbit coupling
   INIWAV =      1    electr: 0-lowe 1-rand  2-diag
   LASPH  =      T    aspherical Exc in radial PAW
   METAGGA=      F    non-selfconsistent MetaGGA calc.

 Electronic Relaxation 1
   ENCUT  =  500.0 eV  36.75 Ry    6.06 a.u.  23.67 22.31 36.46*2*pi/ulx,y,z
   ENINI  =  500.0     initial cutoff
   ENAUG  =  644.9 eV  augmentation charge cutoff
   NELM   =    250;   NELMIN=  2; NELMDL=  0     # of ELM steps 
   EDIFF  = 0.1E-03   stopping-criterion for ELM
   LREAL  =      F    real-space projection
   NLSPLINE    = F    spline interpolate recip. space projectors
   LCOMPAT=      F    compatible to vasp.4.4
   GGA_COMPAT  = T    GGA compatible to vasp.4.4-vasp.4.6
   LMAXPAW     = -100 max onsite density
   LMAXMIX     =    2 max onsite mixed and CHGCAR
   VOSKOWN=      0    Vosko Wilk Nusair interpolation
   ROPT   =    0.00000   0.00000   0.00000   0.00000
 Ionic relaxation
   EDIFFG = -.3E-01   stopping-criterion for IOM
   NSW    =      0    number of steps for IOM
   NBLOCK =      1;   KBLOCK =      1    inner block; outer block 
   IBRION =     -1    ionic relax: 0-MD 1-quasi-New 2-CG
   NFREE  =      1    steps in history (QN), initial steepest desc. (CG)
   ISIF   =      2    stress and relaxation
   IWAVPR =     10    prediction:  0-non 1-charg 2-wave 3-comb
   ISYM   =      3    0-nonsym 1-usesym 2-fastsym
   LCORR  =      T    Harris-Foulkes like correction to forces

   POTIM  = 0.5000    time-step for ionic-motion
   TEIN   =    0.0    initial temperature
   TEBEG  =    0.0;   TEEND  =   0.0 temperature during run
   SMASS  =  -3.00    Nose mass-parameter (am)
   estimated Nose-frequenzy (Omega)   =  0.10E-29 period in steps =****** mass=  -0.385E-26a.u.
   SCALEE = 1.0000    scale energy and forces
   NPACO  =    256;   APACO  = 16.0  distance and # of slots for P.C.
   PSTRESS=    0.0 pullay stress

  Mass of Ions in am
   POMASS =  12.01 14.00 58.93 55.85
  Ionic Valenz
   ZVAL   =   4.00  5.00  9.00  8.00
  Atomic Wigner-Seitz radii
   RWIGS  =  -1.00 -1.00 -1.00 -1.00
  virtual crystal weights 
   VCA    =   1.00  1.00  1.00  1.00
   NELECT =     248.0000    total number of electrons
   NUPDOWN=      -1.0000    fix difference up-down

 DOS related values:
   EMIN   =  10.00;   EMAX   =-10.00  energy-range for DOS
   EFERMI =   0.00
   ISMEAR =     0;   SIGMA  =   0.10  broadening in eV -4-tet -1-fermi 0-gaus

 Electronic relaxation 2 (details)
   IALGO  =     53    algorithm
   LDIAG  =      T    sub-space diagonalisation (order eigenvalues)
   LSUBROT=      F    optimize rotation matrix (better conditioning)
   TURBO    =      0    0=normal 1=particle mesh
   IRESTART =      0    0=no restart 2=restart with 2 vectors
   NREBOOT  =      0    no. of reboots
   NMIN     =      0    reboot dimension
   EREF     =   0.00    reference energy to select bands
   IMIX   =      4    mixing-type and parameters
     AMIX     =   0.40;   BMIX     =  1.00
     AMIX_MAG =   1.60;   BMIX_MAG =  1.00
     AMIN     =   0.10
     WC   =   100.;   INIMIX=   1;  MIXPRE=   1;  MAXMIX= -45

 Intra band minimization:
   WEIMIN = 0.0000     energy-eigenvalue tresh-hold
   EBREAK =  0.16E-06  absolut break condition
   DEPER  =   0.30     relativ break condition  

   TIME   =   0.20     timestep for ELM

  volume/ion in A,a.u.               =      54.77       369.63
  Fermi-wavevector in a.u.,A,eV,Ry     =   0.699666  1.322178  6.660502  0.489533
  Thomas-Fermi vector in A             =   1.783608
 
 Write flags
   LWAVE        =      T    write WAVECAR
   LDOWNSAMPLE  =      F    k-point downsampling of WAVECAR
   LCHARG       =      T    write CHGCAR
   LVTOT        =      F    write LOCPOT, total local potential
   LVHAR        =      F    write LOCPOT, Hartree potential only
   LELF         =      F    write electronic localiz. function (ELF)
   LORBIT       =     11    0 simple, 1 ext, 2 COOP (PROOUT), +10 PAW based schemes


 Dipole corrections
   LMONO  =      F    monopole corrections only (constant potential shift)
   LDIPOL =      T    correct potential (dipole corrections)
   IDIPOL =      3    1-x, 2-y, 3-z, 4-all directions 
   EPSILON=  1.0000000 bulk dielectric constant

 Exchange correlation treatment:
   GGA     =    PE    GGA type
   LEXCH   =     8    internal setting for exchange type
   VOSKOWN=      0    Vosko Wilk Nusair interpolation
   EXXOEP  =     0    0=HF, 1=EXX-LHF (local Hartree Fock) 2=EXX OEP
   LHFCALC =     T    Hartree Fock is set to
   LSYMGRAD=     F    symmetrize gradient (conserves proper symmetry)
   PRECFOCK=normal    Normal, Fast or Accurate (Low or Medium for compatibility)
   LRHFCALC=     F    long range Hartree Fock
   LRSCOR  =     F    long range correlation only (use DFT for short range part)
   LTHOMAS =     F    Thomas Fermi screening in HF
   LMODELHF=     F    short range full HF, long range fraction AEXX
   ENCUT4O =  -1.0   cutoff for four orbital integrals eV
   LMAXFOCK=     4    L truncation for augmentation on plane wave grid
   LMAXFOCKAE=  -1    L truncation for all-electron charge restoration on plane wave grid
   NMAXFOCKAE=   1    number of basis functions for all-electron charge restoration
   LFOCKAEDFT=     F  apply the AE augmentation even for DFT
   NKREDX  =     1    reduce k-point grid by
   NKREDY  =     1    reduce k-point grid by
   NKREDZ  =     1    reduce k-point grid by
   SHIFTRED=     F    shift reduced grid of Gamma
   HFKIDENT=     F    idential grid for each k-point
   ODDONLY =     F    use only odd q-grid points
   EVENONLY=     F    use only even q-grid points
   HFALPHA =   -1.0000 decay constant for conv. correction
   MCALPHA =    0.0000 extent of test-charge in conv. correction in multipole expansion
   AEXX    =    0.2500 exact exchange contribution
   HFSCREEN=    0.2000 screening length (either q_TF or 0.3 A-1)
   HFSCREENC=   0.2000 screening length for correlation (either q_TF or 0.3 A-1)
   HFRCUT  =    0.0000 spherical cutoff for potential kernel
   ALDAX   =    0.7500 LDA exchange part
   AGGAX   =    0.7500 GGA exchange part
   ALDAC   =    1.0000 LDA correlation
   AGGAC   =    1.0000 GGA correlation
   ENCUTFOCK=  -1.0 apply spherical cutoff to Coloumb kernel
   NBANDSGWLOW=     1    first orbital included in HF term
   NBLOCK_FOCK=    64    blocking factor in FOCK_ACC
 Linear response parameters
   LEPSILON=     F    determine dielectric tensor
   LRPA    =     F    only Hartree local field effects (RPA)
   LNABLA  =     F    use nabla operator in PAW spheres
   LVEL    =     F    velocity operator in full k-point grid
   LINTERFAST=   F  fast interpolation
   KINTER  =     0    interpolate to denser k-point grid
   CSHIFT  =0.1000    complex shift for real part using Kramers Kronig
   OMEGAMAX=  -1.0    maximum frequency
   DEG_THRESHOLD= 0.2000000E-02 threshold for treating states as degnerate
   RTIME   =   -0.100 relaxation time in fs
  (WPLASMAI=    0.000 imaginary part of plasma frequency in eV, 0.658/RTIME)
   DFIELD  = 0.0000000 0.0000000 0.0000000 field for delta impulse in time
 
 Orbital magnetization related:
   ORBITALMAG=     F  switch on orbital magnetization
   LCHIMAG   =     F  perturbation theory with respect to B field
   DQ        =  0.001000  dq finite difference perturbation B field
   LLRAUG    =     F  two centre corrections for induced B field



--------------------------------------------------------------------------------------------------------


 Static calculation
 charge density and potential will be updated during run
 spin polarized calculation
 Conjugate gradient for all bands (Freysoldt, et al. PRB 79, 241103 (2009))
 perform sub-space diagonalisation
    before iterative eigenvector-optimisation
 modified Broyden-mixing scheme, WC =      100.0
 initial mixing is a Kerker type mixing with AMIX =  0.4000 and BMIX =      1.0000
 Hartree-type preconditioning will be used
 using additional bands           34
 reciprocal scheme for non local part
 use partial core corrections
 no Harris-corrections to forces 
 use gradient corrections 
 use of overlap-Matrix (Vanderbilt PP)
 Gauss-broadening in eV      SIGMA  =   0.10


--------------------------------------------------------------------------------------------------------


  energy-cutoff  :      500.00
  volume of cell :     3176.90
      direct lattice vectors                 reciprocal lattice vectors
    12.980900000  0.000000000  0.000000000     0.077036261 -0.000051227 -0.000029042
     0.008137974 12.238097294  0.000000000     0.000000000  0.081712049 -0.000000407
     0.007539031  0.000099696 19.997898579     0.000000000  0.000000000  0.050005254

  length of vectors
    12.980900000 12.238100000 19.997900000     0.077036283  0.081712049  0.050005254


 
 old parameters found on file WAVECAR:
  energy-cutoff  :      500.00
  volume of cell :     3176.90
      direct lattice vectors                 reciprocal lattice vectors
    12.980900000  0.000000000  0.000000000     0.077036261 -0.000051227 -0.000029042
     0.008137974 12.238097294  0.000000000     0.000000000  0.081712049 -0.000000407
     0.007539031  0.000099696 19.997898579     0.000000000  0.000000000  0.050005254

  length of vectors

 
 k-points in units of 2pi/SCALE and weight: KPOINTS created by Atomic Simulation Env
   0.01925907  0.02041521 -0.00000736       0.500
  -0.01925907  0.02044082  0.00000716       0.500
 
 k-points in reciprocal lattice and weights: KPOINTS created by Atomic Simulation Env
   0.25000000  0.25000000  0.00000000       0.500
  -0.25000000  0.25000000 -0.00000000       0.500
 
 position of ions in fractional coordinates (direct lattice) 
   0.22835485  0.99995936  0.49980748
   0.05859395  0.09976394  0.49997757
   0.11602718  0.99989722  0.49992695
   0.28283721  0.10451917  0.49959702
   0.22373796  0.20571040  0.49953924
   0.05133255  0.29854686  0.50004532
   0.11198347  0.20112819  0.49986792
   0.21047839  0.39925938  0.49954534
   0.04828548  0.49969533  0.50025922
   0.10293923  0.39944331  0.50003352
   0.26420582  0.49924246  0.49931721
   0.21049486  0.59953523  0.49979206
   0.05141540  0.70089101  0.50015407
   0.10280541  0.59971757  0.50017900
   0.22339610  0.79420825  0.49987581
   0.05860920  0.90015844  0.50001294
   0.11190968  0.79864969  0.50004251
   0.28281061  0.89527748  0.49983551
   0.55809193  0.00022439  0.50001051
   0.39476929  0.10489256  0.49957100
   0.44785328  0.00030679  0.49984849
   0.61390475  0.10034261  0.49996446
   0.55795284  0.19997302  0.49961291
   0.61252153  0.30243895  0.49955333
   0.60709324  0.49952944  0.49948225
   0.61337953  0.69800234  0.49978419
   0.55863336  0.80066318  0.49991826
   0.39491728  0.89583666  0.49982824
   0.61427086  0.90023938  0.50010116
   0.89126370  0.00002680  0.50008900
   0.72421658  0.09966995  0.50009936
   0.78055953  0.00014636  0.50013707
   0.94701596  0.09986047  0.50009492
   0.88870145  0.19877310  0.50013752
   0.72163350  0.29955071  0.49988149
   0.77838412  0.19929649  0.50007460
   0.94183622  0.29909001  0.50015738
   0.88529721  0.39945937  0.50016193
   0.71889361  0.49979794  0.49984459
   0.77574644  0.40010461  0.49996536
   0.93965314  0.49977584  0.50024689
   0.88538391  0.60021216  0.50013598
   0.72223141  0.70061636  0.49994689
   0.77576057  0.59959937  0.49997984
   0.94196334  0.70054562  0.50010900
   0.88895260  0.80118177  0.50003618
   0.72453285  0.90064931  0.50011964
   0.77879250  0.80088764  0.50004313
   0.94703979  0.90013311  0.50003541
   0.27120807  0.30684480  0.49920017
   0.27044431  0.69249258  0.49963942
   0.45152928  0.20182350  0.49931976
   0.55509790  0.39957342  0.49919961
   0.36816019  0.49817894  0.49869383
   0.55655887  0.60052902  0.49943723
   0.45217245  0.79921053  0.49974844
   0.41145034  0.35441514  0.49878626
   0.41232489  0.64438249  0.49914563
 
 position of ions in cartesian coordinates  (Angst):
   2.97615717 12.23764975  9.99509922
   0.76518348  1.22097069  9.99850070
   1.51804331 12.23688928  9.99748846
   3.67609855  1.27916563  9.99089055
   2.90976013  2.51755363  9.98973501
   0.67254215  3.65369536  9.99985567
   1.45905152  2.46147619  9.99630789
   2.73921422  4.88622493  9.98985713
   0.63462696  6.11536993 10.00413323
   1.34326421  4.88847599  9.99961955
   3.43745648  6.10982761  9.98529494
   2.74105962  7.33722032  9.99479094
   0.67689274  8.57762218 10.00203038
   1.34315816  7.33945189 10.00252898
   2.91011431  9.71964768  9.99646584
   0.77189518 11.01627642  9.99920798
   1.46295753  9.77400242  9.99979942
   3.68219030 10.95654274  9.99565985
   7.24830698  0.00279592  9.99915940
   5.12908053  1.28373519  9.99037019
   5.81730953  0.00380432  9.99591933
   7.97362205  1.22805244  9.99823857
   7.24812403  2.44733906  9.99120824
   7.95730810  3.70132710  9.99001684
   7.88844737  6.11333969  9.98859533
   7.97166654  8.54227040  9.99463347
   7.26184847  9.79864369  9.99731470
   5.13744030 10.96338609  9.99551443
   7.98488505 11.01726698 10.00097225
  11.57317541  0.00037786 10.00072905
   9.40556442  1.21982043 10.00093635
  10.13613698  0.00184108 10.00169033
  12.29770237  1.22215195 10.00084748
  11.54153280  2.43265436 10.00169943
   9.37365870  3.66598054  9.99657937
  10.10951838  2.43905966 10.00044122
  12.23208651  3.66034249 10.00209647
  11.49897609  4.88867248 10.00218755
   9.33972180  6.11662563  9.99584132
  10.07691230  4.89656897  9.99825648
  12.20538202  6.11635517 10.00388667
  11.50173508  7.34550468 10.00166865
   9.38468444  8.57426104  9.99788711
  10.07871921  7.33800531  9.99854607
  12.23700325  8.57339533 10.00112907
  11.54969457  9.80499026  9.99967285
   9.41618829 11.02228375 10.00134192
  10.11971507  9.80139073  9.99981187
  12.30452388 11.01596645  9.99965735
   3.52678548  3.75524622  9.98295438
   3.52001279  8.47484134  9.99173836
   5.86666328  2.46998541  9.98534591
   7.21268551  4.89006818  9.98294310
   4.78686445  6.09681201  9.97282864
   7.23328741  7.34938241  9.98769514
   5.87987693  9.78086605  9.99391861
   5.34764033  4.33741663  9.97467705
   5.36135518  7.88606541  9.98186361
 


--------------------------------------------------------------------------------------------------------


 k-point  1 :   0.2500 0.2500 0.0000  plane waves:   80636
 k-point  2 :  -0.2500 0.2500-0.0000  plane waves:   80639

 maximum and minimum number of plane-waves per node :      2044     1988

 maximum number of plane-waves:     80639
 maximum index in each direction: 
   IXMAX=   23   IYMAX=   22   IZMAX=   36
   IXMIN=  -23   IYMIN=  -22   IZMIN=  -36


 parallel 3D FFT for wavefunctions:
    minimum data exchange during FFTs selected (reduces bandwidth)
 parallel 3D FFT for charge:
    minimum data exchange during FFTs selected (reduces bandwidth)


 FFT grid for exact exchange (Hartree Fock) 
  NGX = 72; NGY = 70; NGZ =112

 
 Radii for the augmentation spheres in the non-local exchange
 for species   1 augmentation radius   0.874 (default was   0.699)
       energy cutoff for augmentation   2000.0
 for species   2 augmentation radius   0.886 (default was   0.709)
       energy cutoff for augmentation   2000.0
 for species   3 augmentation radius   1.307 (default was   1.045)
       energy cutoff for augmentation   2000.0
 for species   4 augmentation radius   1.263 (default was   1.010)
       energy cutoff for augmentation   2000.0

 real space projection operators:
  total allocation   :       2538.95 KBytes
  max/ min on nodes  :        112.92         17.79

 Maximum index for augmentation-charges in exchange           78
  SETUP_FOCK is finished

 total amount of memory used by VASP MPI-rank0   139643. kBytes
=======================================================================

   base      :      30000. kBytes
   nonl-proj :       4268. kBytes
   fftplans  :      11188. kBytes
   grid      :      29312. kBytes
   one-center:         62. kBytes
   HF        :         23. kBytes
   nonlr-proj:       1754. kBytes
   wavefun   :      63036. kBytes
 
     INWAV:  cpu time    2.7782: real time    5.3449
 Broyden mixing: mesh for mixing (old mesh)
   NGX = 47   NGY = 45   NGZ = 73
  (NGX  =192   NGY  =180   NGZ  =300)
  gives a total of 154395 points

 charge density for first step will be calculated from the start-wavefunctions


--------------------------------------------------------------------------------------------------------


 Maximum index for augmentation-charges          756 (set IRDMAX)


--------------------------------------------------------------------------------------------------------


 initial charge from wavefunction
 First call to EWALD:  gamma=   0.121
 Maximum number of real-space cells 3x 3x 2
 Maximum number of reciprocal cells 2x 2x 4

    FEWALD:  cpu time    0.0026: real time    0.0026


--------------------------------------- Iteration      1(   1)  ---------------------------------------


    POTLOK:  cpu time    0.8349: real time    0.8388
    SETDIJ:  cpu time    1.0137: real time    1.0162
    TRIAL :  cpu time  169.1190: real time  170.2432
    CORREC:  cpu time    0.0008: real time    0.0008
    CHARGE:  cpu time    0.7358: real time    0.7382
    --------------------------------------------
      LOOP:  cpu time  171.7245: real time  172.8588

 eigenvalue-minimisations  :     0
 total energy-change (2. order) :-0.6082453E+03  (-0.5145511E+00)
 number of electron     248.0000027 magnetization      -1.3824202
 augmentation part       15.4386232 magnetization      -0.8005875

 DIPCOR: dipole corrections for dipol
 direction  3 min pos     1,
 dipolmoment          -0.000001     -0.000000     -0.001557 electrons x Angstroem
 Tr[quadrupol]     -6678.798708

 energy correction for charged system         0.000000 eV
 dipol+quadrupol energy correction            0.000000 eV
 added-field ion interaction          0.000000 eV  (added to PSCEN)


 Free energy of the ion-electron system (eV)
  ---------------------------------------------------
  alpha Z        PSCENC =       100.74873212
  Ewald energy   TEWEN  =     40662.43161400
  -Hartree energ DENC   =    -49603.37871572
  -exchange      EXHF   =       568.50381432
  -V(xc)+E(xc)   XCENC  =       641.31022229
  PAW double counting   =     26930.61565413   -27019.76691151
  entropy T*S    EENTRO =        -0.04420385
  eigenvalues    EBANDS =     -3242.88258258
  atomic energy  EATOM  =     10354.21809164
  ---------------------------------------------------
  free energy    TOTEN  =      -608.24530106 eV

  energy without entropy =     -608.20109722  energy(sigma->0) =     -608.22319914
  exchange ACFDT corr.  =        -0.07596433  see jH, gK, PRB 81, 115126


--------------------------------------------------------------------------------------------------------




--------------------------------------- Iteration      1(   2)  ---------------------------------------


    POTLOK:  cpu time    0.8454: real time    0.8494
    SETDIJ:  cpu time    0.9879: real time    0.9908
    TRIAL :  cpu time  167.5729: real time  168.0117
    CORREC:  cpu time    0.0008: real time    0.0008
    CHARGE:  cpu time    0.7351: real time    0.7369
    --------------------------------------------
      LOOP:  cpu time  170.1444: real time  170.5958

 eigenvalue-minimisations  :     0
 total energy-change (2. order) :-0.4355099E+00  (-0.4947390E+00)
 number of electron     248.0000027 magnetization      -1.4214143
 augmentation part       15.4236236 magnetization      -0.8023060

 DIPCOR: dipole corrections for dipol
 direction  3 min pos     1,
 dipolmoment          -0.000001     -0.000000     -0.001591 electrons x Angstroem
 Tr[quadrupol]     -6678.627520

 energy correction for charged system         0.000000 eV
 dipol+quadrupol energy correction            0.000000 eV
 added-field ion interaction          0.000000 eV  (added to PSCEN)


 Free energy of the ion-electron system (eV)
  ---------------------------------------------------
  alpha Z        PSCENC =       100.74873212
  Ewald energy   TEWEN  =     40662.43161400
  -Hartree energ DENC   =    -49587.74511579
  -exchange      EXHF   =       568.45307363
  -V(xc)+E(xc)   XCENC  =       640.91390535
  PAW double counting   =     27060.46194140   -27149.24528972
  entropy T*S    EENTRO =        -0.04213545
  eigenvalues    EBANDS =     -3258.87355978
  atomic energy  EATOM  =     10354.21809164
  ---------------------------------------------------
  free energy    TOTEN  =      -608.68081099 eV

  energy without entropy =     -608.63867554  energy(sigma->0) =     -608.65974327
  exchange ACFDT corr.  =        -0.08542058  see jH, gK, PRB 81, 115126


--------------------------------------------------------------------------------------------------------




--------------------------------------- Iteration      1(   3)  ---------------------------------------


    POTLOK:  cpu time    0.8584: real time    0.8613
    SETDIJ:  cpu time    0.9839: real time    0.9874
    TRIAL :  cpu time  166.1589: real time  166.5951
    CORREC:  cpu time    0.0008: real time    0.0008
    CHARGE:  cpu time    0.7340: real time    0.7359
    --------------------------------------------
      LOOP:  cpu time  168.7381: real time  169.1873

 eigenvalue-minimisations  :     0
 total energy-change (2. order) :-0.3883685E+00  (-0.3068297E+00)
 number of electron     248.0000027 magnetization      -1.4607407
 augmentation part       15.4121019 magnetization      -0.8029461

 DIPCOR: dipole corrections for dipol
 direction  3 min pos     1,
 dipolmoment          -0.000001     -0.000000     -0.001764 electrons x Angstroem
 Tr[quadrupol]     -6678.467081

 energy correction for charged system         0.000000 eV
 dipol+quadrupol energy correction            0.000000 eV
 added-field ion interaction          0.000000 eV  (added to PSCEN)


 Free energy of the ion-electron system (eV)
  ---------------------------------------------------
  alpha Z        PSCENC =       100.74873214
  Ewald energy   TEWEN  =     40662.43161400
  -Hartree energ DENC   =    -49573.54302148
  -exchange      EXHF   =       568.49703409
  -V(xc)+E(xc)   XCENC  =       640.54265917
  PAW double counting   =     27227.97682867   -27316.82565232
  entropy T*S    EENTRO =        -0.04001482
  eigenvalues    EBANDS =     -3273.07332993
  atomic energy  EATOM  =     10354.21809164
  ---------------------------------------------------
  free energy    TOTEN  =      -609.06917945 eV

  energy without entropy =     -609.02916463  energy(sigma->0) =     -609.04917204
  exchange ACFDT corr.  =        -0.07000746  see jH, gK, PRB 81, 115126


--------------------------------------------------------------------------------------------------------




--------------------------------------- Iteration      1(   4)  ---------------------------------------


    POTLOK:  cpu time    0.8599: real time    0.8629
    SETDIJ:  cpu time    0.9987: real time    1.0023
    TRIAL :  cpu time  165.8502: real time  166.3045
    CORREC:  cpu time    0.0008: real time    0.0008
    CHARGE:  cpu time    0.7344: real time    0.7362
    --------------------------------------------
      LOOP:  cpu time  168.4465: real time  168.9129

 eigenvalue-minimisations  :     0
 total energy-change (2. order) :-0.2383303E+00  (-0.1848709E+00)
 number of electron     248.0000027 magnetization      -1.5019464
 augmentation part       15.4083161 magnetization      -0.8043394

 DIPCOR: dipole corrections for dipol
 direction  3 min pos     1,
 dipolmoment          -0.000001     -0.000000     -0.001720 electrons x Angstroem
 Tr[quadrupol]     -6678.407196

 energy correction for charged system         0.000000 eV
 dipol+quadrupol energy correction            0.000000 eV
 added-field ion interaction          0.000000 eV  (added to PSCEN)


 Free energy of the ion-electron system (eV)
  ---------------------------------------------------
  alpha Z        PSCENC =       100.74873213
  Ewald energy   TEWEN  =     40662.43161400
  -Hartree energ DENC   =    -49566.88684683
  -exchange      EXHF   =       568.71824845
  -V(xc)+E(xc)   XCENC  =       640.38009612
  PAW double counting   =     27371.97074303   -27460.80888355
  entropy T*S    EENTRO =        -0.03788596
  eigenvalues    EBANDS =     -3280.03928996
  atomic energy  EATOM  =     10354.21809164
  ---------------------------------------------------
  free energy    TOTEN  =      -609.30750979 eV

  energy without entropy =     -609.26962382  energy(sigma->0) =     -609.28856680
  exchange ACFDT corr.  =        -0.05935034  see jH, gK, PRB 81, 115126


--------------------------------------------------------------------------------------------------------




--------------------------------------- Iteration      1(   5)  ---------------------------------------


    POTLOK:  cpu time    0.8584: real time    0.8613
    SETDIJ:  cpu time    0.9954: real time    0.9980
    TRIAL :  cpu time  165.1624: real time  165.5950
    CORREC:  cpu time    0.0008: real time    0.0008
    CHARGE:  cpu time    0.7304: real time    0.7323
    --------------------------------------------
      LOOP:  cpu time  167.7493: real time  168.1939

 eigenvalue-minimisations  :     0
 total energy-change (2. order) :-0.1487508E+00  (-0.1191237E+00)
 number of electron     248.0000027 magnetization      -1.5483653
 augmentation part       15.4123587 magnetization      -0.8077226

 DIPCOR: dipole corrections for dipol
 direction  3 min pos     1,
 dipolmoment          -0.000001     -0.000000     -0.001557 electrons x Angstroem
 Tr[quadrupol]     -6678.438790

 energy correction for charged system         0.000000 eV
 dipol+quadrupol energy correction            0.000000 eV
 added-field ion interaction          0.000000 eV  (added to PSCEN)


 Free energy of the ion-electron system (eV)
  ---------------------------------------------------
  alpha Z        PSCENC =       100.74873212
  Ewald energy   TEWEN  =     40662.43161400
  -Hartree energ DENC   =    -49567.62774987
  -exchange      EXHF   =       569.06016286
  -V(xc)+E(xc)   XCENC  =       640.41716161
  PAW double counting   =     27475.62054906   -27564.42979315
  entropy T*S    EENTRO =        -0.03566725
  eigenvalues    EBANDS =     -3279.85714294
  atomic energy  EATOM  =     10354.21809164
  ---------------------------------------------------
  free energy    TOTEN  =      -609.45626062 eV

  energy without entropy =     -609.42059337  energy(sigma->0) =     -609.43842700
  exchange ACFDT corr.  =        -0.05204750  see jH, gK, PRB 81, 115126


--------------------------------------------------------------------------------------------------------




--------------------------------------- Iteration      1(   6)  ---------------------------------------


    POTLOK:  cpu time    0.8607: real time    0.8639
    SETDIJ:  cpu time    0.9984: real time    1.0016
    TRIAL :  cpu time  164.9718: real time  165.4037
    CORREC:  cpu time    0.0008: real time    0.0008
    CHARGE:  cpu time    0.7298: real time    0.7316
    --------------------------------------------
      LOOP:  cpu time  167.5637: real time  168.0082

 eigenvalue-minimisations  :     0
 total energy-change (2. order) :-0.9918573E-01  (-0.7915156E-01)
 number of electron     248.0000027 magnetization      -1.5977986
 augmentation part       15.4196170 magnetization      -0.8122598

 DIPCOR: dipole corrections for dipol
 direction  3 min pos     1,
 dipolmoment          -0.000001     -0.000000     -0.001458 electrons x Angstroem
 Tr[quadrupol]     -6678.503651

 energy correction for charged system         0.000000 eV
 dipol+quadrupol energy correction            0.000000 eV
 added-field ion interaction          0.000000 eV  (added to PSCEN)


 Free energy of the ion-electron system (eV)
  ---------------------------------------------------
  alpha Z        PSCENC =       100.74873211
  Ewald energy   TEWEN  =     40662.43161400
  -Hartree energ DENC   =    -49571.76165614
  -exchange      EXHF   =       569.41049410
  -V(xc)+E(xc)   XCENC  =       640.54386493
  PAW double counting   =     27542.49040602   -27631.35773123
  entropy T*S    EENTRO =        -0.03335921
  eigenvalues    EBANDS =     -3276.24359454
  atomic energy  EATOM  =     10354.21809164
  ---------------------------------------------------
  free energy    TOTEN  =      -609.55544635 eV

  energy without entropy =     -609.52208714  energy(sigma->0) =     -609.53876675
  exchange ACFDT corr.  =        -0.04618305  see jH, gK, PRB 81, 115126


--------------------------------------------------------------------------------------------------------




--------------------------------------- Iteration      1(   7)  ---------------------------------------


    POTLOK:  cpu time    0.8554: real time    0.8599
    SETDIJ:  cpu time    0.9862: real time    0.9892
    TRIAL :  cpu time  164.9885: real time  165.4418
    CORREC:  cpu time    0.0008: real time    0.0008
    CHARGE:  cpu time    0.7298: real time    0.7322
    --------------------------------------------
      LOOP:  cpu time  167.5643: real time  168.0320

 eigenvalue-minimisations  :     0
 total energy-change (2. order) :-0.6751179E-01  (-0.5373883E-01)
 number of electron     248.0000027 magnetization      -1.6478184
 augmentation part       15.4261119 magnetization      -0.8171996

 DIPCOR: dipole corrections for dipol
 direction  3 min pos     1,
 dipolmoment          -0.000001     -0.000000     -0.001434 electrons x Angstroem
 Tr[quadrupol]     -6678.558840

 energy correction for charged system         0.000000 eV
 dipol+quadrupol energy correction            0.000000 eV
 added-field ion interaction          0.000000 eV  (added to PSCEN)


 Free energy of the ion-electron system (eV)
  ---------------------------------------------------
  alpha Z        PSCENC =       100.74873211
  Ewald energy   TEWEN  =     40662.43161400
  -Hartree energ DENC   =    -49575.82850842
  -exchange      EXHF   =       569.69566408
  -V(xc)+E(xc)   XCENC  =       640.66851340
  PAW double counting   =     27581.94483744   -27670.92002575
  entropy T*S    EENTRO =        -0.03093201
  eigenvalues    EBANDS =     -3272.54851743
  atomic energy  EATOM  =     10354.21809164
  ---------------------------------------------------
  free energy    TOTEN  =      -609.62295813 eV

  energy without entropy =     -609.59202613  energy(sigma->0) =     -609.60749213
  exchange ACFDT corr.  =        -0.05509574  see jH, gK, PRB 81, 115126


--------------------------------------------------------------------------------------------------------




--------------------------------------- Iteration      1(   8)  ---------------------------------------


    POTLOK:  cpu time    0.8530: real time    0.8567
    SETDIJ:  cpu time    0.9880: real time    0.9912
    TRIAL :  cpu time  164.8420: real time  165.2735
    CORREC:  cpu time    0.0008: real time    0.0008
    CHARGE:  cpu time    0.7313: real time    0.7332
    --------------------------------------------
      LOOP:  cpu time  167.4172: real time  167.8611

 eigenvalue-minimisations  :     0
 total energy-change (2. order) :-0.4682719E-01  (-0.3777298E-01)
 number of electron     248.0000027 magnetization      -1.6972709
 augmentation part       15.4304843 magnetization      -0.8223232

 DIPCOR: dipole corrections for dipol
 direction  3 min pos     1,
 dipolmoment          -0.000001     -0.000000     -0.001448 electrons x Angstroem
 Tr[quadrupol]     -6678.590240

 energy correction for charged system         0.000000 eV
 dipol+quadrupol energy correction            0.000000 eV
 added-field ion interaction          0.000000 eV  (added to PSCEN)


 Free energy of the ion-electron system (eV)
  ---------------------------------------------------
  alpha Z        PSCENC =       100.74873211
  Ewald energy   TEWEN  =     40662.43161400
  -Hartree energ DENC   =    -49578.36874063
  -exchange      EXHF   =       569.89611836
  -V(xc)+E(xc)   XCENC  =       640.75219031
  PAW double counting   =     27603.26611799   -27692.33436853
  entropy T*S    EENTRO =        -0.02832287
  eigenvalues    EBANDS =     -3270.24860857
  atomic energy  EATOM  =     10354.21809164
  ---------------------------------------------------
  free energy    TOTEN  =      -609.66978532 eV

  energy without entropy =     -609.64146246  energy(sigma->0) =     -609.65562389
  exchange ACFDT corr.  =        -0.04781027  see jH, gK, PRB 81, 115126


--------------------------------------------------------------------------------------------------------




--------------------------------------- Iteration      1(   9)  ---------------------------------------


    POTLOK:  cpu time    0.8472: real time    0.8550
    SETDIJ:  cpu time    0.9851: real time    0.9883
    TRIAL :  cpu time  164.8618: real time  165.2938
    CORREC:  cpu time    0.0008: real time    0.0008
    CHARGE:  cpu time    0.7297: real time    0.7314
    --------------------------------------------
      LOOP:  cpu time  167.4266: real time  167.8755

 eigenvalue-minimisations  :     0
 total energy-change (2. order) :-0.3352533E-01  (-0.2749666E-01)
 number of electron     248.0000027 magnetization      -1.7452891
 augmentation part       15.4332327 magnetization      -0.8275131

 DIPCOR: dipole corrections for dipol
 direction  3 min pos     1,
 dipolmoment          -0.000001     -0.000000     -0.001466 electrons x Angstroem
 Tr[quadrupol]     -6678.602068

 energy correction for charged system         0.000000 eV
 dipol+quadrupol energy correction            0.000000 eV
 added-field ion interaction          0.000000 eV  (added to PSCEN)


 Free energy of the ion-electron system (eV)
  ---------------------------------------------------
  alpha Z        PSCENC =       100.74873211
  Ewald energy   TEWEN  =     40662.43161400
  -Hartree energ DENC   =    -49579.44702858
  -exchange      EXHF   =       570.02687142
  -V(xc)+E(xc)   XCENC  =       640.79534305
  PAW double counting   =     27613.86337214   -27702.98877239
  entropy T*S    EENTRO =        -0.02549418
  eigenvalues    EBANDS =     -3269.32321118
  atomic energy  EATOM  =     10354.21809164
  ---------------------------------------------------
  free energy    TOTEN  =      -609.70331066 eV

  energy without entropy =     -609.67781648  energy(sigma->0) =     -609.69056357
  exchange ACFDT corr.  =        -0.04104237  see jH, gK, PRB 81, 115126


--------------------------------------------------------------------------------------------------------




--------------------------------------- Iteration      1(  10)  ---------------------------------------


    POTLOK:  cpu time    0.8450: real time    0.8482
    SETDIJ:  cpu time    1.0050: real time    1.0082
    TRIAL :  cpu time  165.3303: real time  165.7632
    CORREC:  cpu time    0.0008: real time    0.0008
    CHARGE:  cpu time    0.7299: real time    0.7318
    --------------------------------------------
      LOOP:  cpu time  167.9131: real time  168.3579

 eigenvalue-minimisations  :     0
 total energy-change (2. order) :-0.2476272E-01  (-0.2062925E-01)
 number of electron     248.0000027 magnetization      -1.7906120
 augmentation part       15.4352671 magnetization      -0.8325412

 DIPCOR: dipole corrections for dipol
 direction  3 min pos     1,
 dipolmoment          -0.000001     -0.000000     -0.001469 electrons x Angstroem
 Tr[quadrupol]     -6678.604168

 energy correction for charged system         0.000000 eV
 dipol+quadrupol energy correction            0.000000 eV
 added-field ion interaction          0.000000 eV  (added to PSCEN)


 Free energy of the ion-electron system (eV)
  ---------------------------------------------------
  alpha Z        PSCENC =       100.74873211
  Ewald energy   TEWEN  =     40662.43161400
  -Hartree energ DENC   =    -49579.71592334
  -exchange      EXHF   =       570.11384567
  -V(xc)+E(xc)   XCENC  =       640.81395776
  PAW double counting   =     27618.71798588   -27707.88052163
  entropy T*S    EENTRO =        -0.02247825
  eigenvalues    EBANDS =     -3269.15036129
  atomic energy  EATOM  =     10354.21809164
  ---------------------------------------------------
  free energy    TOTEN  =      -609.72807338 eV

  energy without entropy =     -609.70559512  energy(sigma->0) =     -609.71683425
  exchange ACFDT corr.  =        -0.03465766  see jH, gK, PRB 81, 115126


--------------------------------------------------------------------------------------------------------




--------------------------------------- Iteration      1(  11)  ---------------------------------------


    POTLOK:  cpu time    0.8443: real time    0.8491
    SETDIJ:  cpu time    0.9874: real time    0.9908
    TRIAL :  cpu time  165.3156: real time  165.7571
    CORREC:  cpu time    0.0008: real time    0.0008
    CHARGE:  cpu time    0.7292: real time    0.7309
    --------------------------------------------
      LOOP:  cpu time  167.8799: real time  168.3349

 eigenvalue-minimisations  :     0
 total energy-change (2. order) :-0.1879382E-01  (-0.1587821E-01)
 number of electron     248.0000027 magnetization      -1.8317935
 augmentation part       15.4370626 magnetization      -0.8370805

 DIPCOR: dipole corrections for dipol
 direction  3 min pos     1,
 dipolmoment          -0.000001     -0.000000     -0.001458 electrons x Angstroem
 Tr[quadrupol]     -6678.604417

 energy correction for charged system         0.000000 eV
 dipol+quadrupol energy correction            0.000000 eV
 added-field ion interaction          0.000000 eV  (added to PSCEN)


 Free energy of the ion-electron system (eV)
  ---------------------------------------------------
  alpha Z        PSCENC =       100.74873211
  Ewald energy   TEWEN  =     40662.43161400
  -Hartree energ DENC   =    -49579.76979784
  -exchange      EXHF   =       570.17870604
  -V(xc)+E(xc)   XCENC  =       640.82336758
  PAW double counting   =     27620.91179541   -27710.10972462
  entropy T*S    EENTRO =        -0.01937884
  eigenvalues    EBANDS =     -3269.15717326
  atomic energy  EATOM  =     10354.21809164
  ---------------------------------------------------
  free energy    TOTEN  =      -609.74686720 eV

  energy without entropy =     -609.72748836  energy(sigma->0) =     -609.73717778
  exchange ACFDT corr.  =        -0.02866841  see jH, gK, PRB 81, 115126


--------------------------------------------------------------------------------------------------------




--------------------------------------- Iteration      1(  12)  ---------------------------------------


    POTLOK:  cpu time    0.8423: real time    0.8458
    SETDIJ:  cpu time    0.9956: real time    0.9989
    TRIAL :  cpu time  165.2375: real time  165.6645
    CORREC:  cpu time    0.0007: real time    0.0007
    CHARGE:  cpu time    0.7297: real time    0.7315
    --------------------------------------------
      LOOP:  cpu time  167.8077: real time  168.2480

 eigenvalue-minimisations  :     0
 total energy-change (2. order) :-0.1458289E-01  (-0.1243515E-01)
 number of electron     248.0000027 magnetization      -1.8677152
 augmentation part       15.4386077 magnetization      -0.8409098

 DIPCOR: dipole corrections for dipol
 direction  3 min pos     1,
 dipolmoment          -0.000001     -0.000000     -0.001440 electrons x Angstroem
 Tr[quadrupol]     -6678.606075

 energy correction for charged system         0.000000 eV
 dipol+quadrupol energy correction            0.000000 eV
 added-field ion interaction          0.000000 eV  (added to PSCEN)


 Free energy of the ion-electron system (eV)
  ---------------------------------------------------
  alpha Z        PSCENC =       100.74873211
  Ewald energy   TEWEN  =     40662.43161400
  -Hartree energ DENC   =    -49579.88196830
  -exchange      EXHF   =       570.23306930
  -V(xc)+E(xc)   XCENC  =       640.83134862
  PAW double counting   =     27622.24177497   -27711.47577662
  entropy T*S    EENTRO =        -0.01633633
  eigenvalues    EBANDS =     -3269.08895697
  atomic energy  EATOM  =     10354.21809164
  ---------------------------------------------------
  free energy    TOTEN  =      -609.76145008 eV

  energy without entropy =     -609.74511375  energy(sigma->0) =     -609.75328192
  exchange ACFDT corr.  =        -0.02318958  see jH, gK, PRB 81, 115126


--------------------------------------------------------------------------------------------------------




--------------------------------------- Iteration      1(  13)  ---------------------------------------


    POTLOK:  cpu time    0.8403: real time    0.8431
    SETDIJ:  cpu time    0.9982: real time    1.0015
    TRIAL :  cpu time  165.4997: real time  165.9256
    CORREC:  cpu time    0.0007: real time    0.0007
    CHARGE:  cpu time    0.7287: real time    0.7306
    --------------------------------------------
      LOOP:  cpu time  168.0701: real time  168.5073

 eigenvalue-minimisations  :     0
 total energy-change (2. order) :-0.1147605E-01  (-0.9835404E-02)
 number of electron     248.0000027 magnetization      -1.8978486
 augmentation part       15.4398213 magnetization      -0.8439547

 DIPCOR: dipole corrections for dipol
 direction  3 min pos     1,
 dipolmoment          -0.000001     -0.000000     -0.001425 electrons x Angstroem
 Tr[quadrupol]     -6678.609081

 energy correction for charged system         0.000000 eV
 dipol+quadrupol energy correction            0.000000 eV
 added-field ion interaction          0.000000 eV  (added to PSCEN)


 Free energy of the ion-electron system (eV)
  ---------------------------------------------------
  alpha Z        PSCENC =       100.74873211
  Ewald energy   TEWEN  =     40662.43161400
  -Hartree energ DENC   =    -49580.06940497
  -exchange      EXHF   =       570.28060184
  -V(xc)+E(xc)   XCENC  =       640.83927086
  PAW double counting   =     27623.62655198   -27712.89082618
  entropy T*S    EENTRO =        -0.01348761
  eigenvalues    EBANDS =     -3268.94122109
  atomic energy  EATOM  =     10354.21809164
  ---------------------------------------------------
  free energy    TOTEN  =      -609.77292614 eV

  energy without entropy =     -609.75943853  energy(sigma->0) =     -609.76618233
  exchange ACFDT corr.  =        -0.01835066  see jH, gK, PRB 81, 115126


--------------------------------------------------------------------------------------------------------




--------------------------------------- Iteration      1(  14)  ---------------------------------------


    POTLOK:  cpu time    0.8381: real time    0.8419
    SETDIJ:  cpu time    0.9789: real time    0.9812
    TRIAL :  cpu time  165.2234: real time  165.6538
    CORREC:  cpu time    0.0008: real time    0.0008
    CHARGE:  cpu time    0.7306: real time    0.7323
    --------------------------------------------
      LOOP:  cpu time  167.7738: real time  168.2156

 eigenvalue-minimisations  :     0
 total energy-change (2. order) :-0.9101517E-02  (-0.7818222E-02)
 number of electron     248.0000027 magnetization      -1.9222328
 augmentation part       15.4407703 magnetization      -0.8462262

 DIPCOR: dipole corrections for dipol
 direction  3 min pos     1,
 dipolmoment          -0.000001     -0.000000     -0.001410 electrons x Angstroem
 Tr[quadrupol]     -6678.612389

 energy correction for charged system         0.000000 eV
 dipol+quadrupol energy correction            0.000000 eV
 added-field ion interaction          0.000000 eV  (added to PSCEN)


 Free energy of the ion-electron system (eV)
  ---------------------------------------------------
  alpha Z        PSCENC =       100.74873211
  Ewald energy   TEWEN  =     40662.43161400
  -Hartree energ DENC   =    -49580.27052209
  -exchange      EXHF   =       570.32177906
  -V(xc)+E(xc)   XCENC  =       640.84623808
  PAW double counting   =     27625.33564002   -27714.62091949
  entropy T*S    EENTRO =        -0.01093895
  eigenvalues    EBANDS =     -3268.77919337
  atomic energy  EATOM  =     10354.21809164
  ---------------------------------------------------
  free energy    TOTEN  =      -609.78202765 eV

  energy without entropy =     -609.77108870  energy(sigma->0) =     -609.77655818
  exchange ACFDT corr.  =        -0.01423599  see jH, gK, PRB 81, 115126


--------------------------------------------------------------------------------------------------------




--------------------------------------- Iteration      1(  15)  ---------------------------------------


    POTLOK:  cpu time    0.8387: real time    0.8418
    SETDIJ:  cpu time    0.9900: real time    0.9924
    TRIAL :  cpu time  165.3581: real time  165.7833
    CORREC:  cpu time    0.0007: real time    0.0007
    CHARGE:  cpu time    0.7311: real time    0.7331
    --------------------------------------------
      LOOP:  cpu time  167.9208: real time  168.3580

 eigenvalue-minimisations  :     0
 total energy-change (2. order) :-0.7249361E-02  (-0.6247256E-02)
 number of electron     248.0000027 magnetization      -1.9413342
 augmentation part       15.4415989 magnetization      -0.8477876

 DIPCOR: dipole corrections for dipol
 direction  3 min pos     1,
 dipolmoment          -0.000001     -0.000000     -0.001396 electrons x Angstroem
 Tr[quadrupol]     -6678.615298

 energy correction for charged system         0.000000 eV
 dipol+quadrupol energy correction            0.000000 eV
 added-field ion interaction          0.000000 eV  (added to PSCEN)


 Free energy of the ion-electron system (eV)
  ---------------------------------------------------
  alpha Z        PSCENC =       100.74873211
  Ewald energy   TEWEN  =     40662.43161400
  -Hartree energ DENC   =    -49580.44818682
  -exchange      EXHF   =       570.35694903
  -V(xc)+E(xc)   XCENC  =       640.85172712
  PAW double counting   =     27627.32475408   -27716.62486156
  entropy T*S    EENTRO =        -0.00875315
  eigenvalues    EBANDS =     -3268.63715766
  atomic energy  EATOM  =     10354.21809164
  ---------------------------------------------------
  free energy    TOTEN  =      -609.78927702 eV

  energy without entropy =     -609.78052386  energy(sigma->0) =     -609.78490044
  exchange ACFDT corr.  =        -0.00911869  see jH, gK, PRB 81, 115126


--------------------------------------------------------------------------------------------------------




--------------------------------------- Iteration      1(  16)  ---------------------------------------


    POTLOK:  cpu time    0.8352: real time    0.8383
    SETDIJ:  cpu time    0.9835: real time    0.9867
    TRIAL :  cpu time  165.3574: real time  165.7972
    CORREC:  cpu time    0.0008: real time    0.0008
    CHARGE:  cpu time    0.7286: real time    0.7309
    --------------------------------------------
      LOOP:  cpu time  167.9071: real time  168.3605

 eigenvalue-minimisations  :     0
 total energy-change (2. order) :-0.5807255E-02  (-0.5024438E-02)
 number of electron     248.0000027 magnetization      -1.9558874
 augmentation part       15.4423519 magnetization      -0.8487747

 DIPCOR: dipole corrections for dipol
 direction  3 min pos     1,
 dipolmoment          -0.000001     -0.000000     -0.001385 electrons x Angstroem
 Tr[quadrupol]     -6678.617689

 energy correction for charged system         0.000000 eV
 dipol+quadrupol energy correction            0.000000 eV
 added-field ion interaction          0.000000 eV  (added to PSCEN)


 Free energy of the ion-electron system (eV)
  ---------------------------------------------------
  alpha Z        PSCENC =       100.74873211
  Ewald energy   TEWEN  =     40662.43161400
  -Hartree energ DENC   =    -49580.60394378
  -exchange      EXHF   =       570.38713260
  -V(xc)+E(xc)   XCENC  =       640.85607475
  PAW double counting   =     27629.41979232   -27718.73310619
  entropy T*S    EENTRO =        -0.00694741
  eigenvalues    EBANDS =     -3268.51071856
  atomic energy  EATOM  =     10354.21809164
  ---------------------------------------------------
  free energy    TOTEN  =      -609.79508427 eV

  energy without entropy =     -609.78813686  energy(sigma->0) =     -609.79161057
  exchange ACFDT corr.  =        -0.00723906  see jH, gK, PRB 81, 115126


--------------------------------------------------------------------------------------------------------




--------------------------------------- Iteration      1(  17)  ---------------------------------------


    POTLOK:  cpu time    0.8369: real time    0.8410
    SETDIJ:  cpu time    0.9862: real time    0.9894
    TRIAL :  cpu time  165.2826: real time  165.7078
    CORREC:  cpu time    0.0008: real time    0.0008
    CHARGE:  cpu time    0.7297: real time    0.7315
    --------------------------------------------
      LOOP:  cpu time  167.8380: real time  168.2765

 eigenvalue-minimisations  :     0
 total energy-change (2. order) :-0.4687223E-02  (-0.4084577E-02)
 number of electron     248.0000027 magnetization      -1.9667426
 augmentation part       15.4430284 magnetization      -0.8493199

 DIPCOR: dipole corrections for dipol
 direction  3 min pos     1,
 dipolmoment          -0.000001     -0.000000     -0.001376 electrons x Angstroem
 Tr[quadrupol]     -6678.619649

 energy correction for charged system         0.000000 eV
 dipol+quadrupol energy correction            0.000000 eV
 added-field ion interaction          0.000000 eV  (added to PSCEN)


 Free energy of the ion-electron system (eV)
  ---------------------------------------------------
  alpha Z        PSCENC =       100.74873210
  Ewald energy   TEWEN  =     40662.43161400
  -Hartree energ DENC   =    -49580.74344948
  -exchange      EXHF   =       570.41331756
  -V(xc)+E(xc)   XCENC  =       640.85968735
  PAW double counting   =     27631.42946920   -27720.75483519
  entropy T*S    EENTRO =        -0.00550048
  eigenvalues    EBANDS =     -3268.39545126
  atomic energy  EATOM  =     10354.21809164
  ---------------------------------------------------
  free energy    TOTEN  =      -609.79977149 eV

  energy without entropy =     -609.79427102  energy(sigma->0) =     -609.79702125
  exchange ACFDT corr.  =        -0.00544980  see jH, gK, PRB 81, 115126


--------------------------------------------------------------------------------------------------------




[...]
  augment   172.04404   161.64719   182.34661    -1.16770     0.01207    -0.01430
  Kinetic  3723.18799  3693.04107  4242.25743     0.01171     0.01399     0.07447
  Fock     -346.62935  -342.98268  -326.40908     0.90522     0.02134     0.03321
  -------------------------------------------------------------------------------------
  Total     -44.89826   -42.68684    -0.44224    -0.16408     0.00259     0.01575
  in kB     -22.64316   -21.52789    -0.22303    -0.08275     0.00131     0.00794
  external pressure =      -14.80 kB  Pullay stress =        0.00 kB


 VOLUME and BASIS-vectors are now :
 -----------------------------------------------------------------------------
  energy-cutoff  :      500.00
  volume of cell :     3176.90
      direct lattice vectors                 reciprocal lattice vectors
    12.980900000  0.000000000  0.000000000     0.077036261 -0.000051227 -0.000029042
     0.008137974 12.238097294  0.000000000     0.000000000  0.081712049 -0.000000407
     0.007539031  0.000099696 19.997898579     0.000000000  0.000000000  0.050005254

  length of vectors
    12.980900000 12.238100000 19.997900000     0.077036283  0.081712049  0.050005254


 FORCES acting on ions:
    Electron-Ion                     Ewald-Force                    Non-Local-Force
 -----------------------------------------------------------------------------------------------
   0.198E+01 0.198E+01 -.172E+00   -.185E+01 -.200E+01 0.175E+00   -.107E+00 -.204E-01 -.542E-02
   0.479E+01 0.102E+02 -.566E+00   -.469E+01 -.104E+02 0.566E+00   -.113E+00 0.264E+00 -.123E-02
   -.708E+01 0.104E+01 -.308E+00   0.715E+01 -.107E+01 0.303E+00   -.976E-01 -.127E-01 0.335E-02
   0.104E+02 0.183E+02 0.647E+00   -.105E+02 -.183E+02 -.653E+00   0.122E+00 -.130E-01 0.495E-02
   0.186E+02 0.539E+02 0.660E+00   -.199E+02 -.569E+02 -.642E+00   0.136E+01 0.333E+01 -.181E-01
   0.150E+02 0.162E+02 -.113E+01   -.153E+02 -.165E+02 0.112E+01   0.297E+00 0.242E+00 0.279E-02
   0.426E+01 0.174E+02 -.382E+00   -.450E+01 -.177E+02 0.383E+00   0.117E+00 0.270E+00 -.884E-03
   0.451E+02 -.917E+01 0.177E+00   -.468E+02 0.120E+02 -.159E+00   0.162E+01 -.319E+01 -.197E-01
   0.134E+02 -.637E+00 -.256E+01   -.135E+02 0.633E+00 0.256E+01   0.105E+00 0.571E-02 -.835E-02
   0.251E+02 0.784E+00 -.173E+01   -.256E+02 -.538E+00 0.174E+01   0.482E+00 -.240E+00 -.119E-01
   0.529E+02 -.919E+01 0.122E+01   -.528E+02 0.914E+01 -.124E+01   0.974E+00 0.143E-01 0.115E-01
   0.368E+02 0.417E+01 -.978E+00   -.385E+02 -.702E+01 0.986E+00   0.163E+01 0.319E+01 -.123E-01
   0.125E+02 -.170E+02 -.147E+01   -.128E+02 0.172E+02 0.147E+01   0.275E+00 -.226E+00 -.148E-02
   0.226E+02 -.371E+01 -.239E+01   -.230E+02 0.343E+01 0.239E+01   0.488E+00 0.244E+00 -.132E-01
   0.111E+02 -.493E+02 -.694E+00   -.125E+02 0.525E+02 0.700E+00   0.138E+01 -.334E+01 -.110E-01
   0.404E+01 -.853E+01 -.538E+00   -.392E+01 0.884E+01 0.539E+00   -.114E+00 -.265E+00 -.164E-02
   0.307E+01 -.155E+02 -.990E+00   -.323E+01 0.158E+02 0.988E+00   0.143E+00 -.278E+00 -.559E-03
   0.761E+01 -.112E+02 -.334E+00   -.781E+01 0.112E+02 0.329E+00   0.112E+00 0.131E-01 0.209E-02
   -.237E+01 0.218E+01 -.131E+01   0.244E+01 -.214E+01 0.130E+01   -.123E+00 -.211E-01 0.245E-02
   0.277E+02 0.368E+02 0.465E+00   -.300E+02 -.392E+02 -.455E+00   0.236E+01 0.255E+01 -.104E-01
   0.148E+02 0.276E+01 -.725E+00   -.151E+02 -.276E+01 0.726E+00   0.395E+00 -.234E-01 -.600E-02
   -.147E+02 0.113E+02 -.116E+01   0.154E+02 -.112E+02 0.116E+01   -.663E+00 -.609E-01 -.882E-02
   -.421E+02 0.197E+02 0.118E+00   0.452E+02 -.198E+02 -.103E+00   -.318E+01 -.219E-01 -.161E-01
   -.352E+02 0.240E+02 0.493E+00   0.369E+02 -.263E+02 -.477E+00   -.166E+01 0.234E+01 -.162E-01
   -.257E+02 -.375E+01 0.767E+00   0.287E+02 0.353E+01 -.743E+00   -.324E+01 0.185E+00 -.249E-01
   -.257E+02 -.242E+02 -.375E+00   0.276E+02 0.264E+02 0.389E+00   -.173E+01 -.241E+01 -.168E-01
   -.354E+02 -.123E+02 -.108E+01   0.385E+02 0.125E+02 0.109E+01   -.324E+01 -.567E-01 -.114E-01
   0.286E+02 -.279E+02 -.511E+00   -.309E+02 0.304E+02 0.506E+00   0.243E+01 -.267E+01 -.548E-03
   -.130E+02 -.846E+01 -.170E+01   0.137E+02 0.841E+01 0.171E+01   -.677E+00 0.230E-02 -.133E-01
   -.478E+00 0.467E+00 -.651E+00   0.539E+00 -.455E+00 0.650E+00   -.109E+00 -.338E-02 0.257E-02
   -.369E+01 0.739E+01 -.127E+01   0.409E+01 -.736E+01 0.127E+01   -.378E+00 0.157E-01 -.143E-02
   -.102E+02 0.255E+00 -.113E+01   0.103E+02 -.250E+00 0.114E+01   -.112E+00 -.260E-01 -.307E-02
   -.834E+01 0.306E+01 -.888E+00   0.847E+01 -.309E+01 0.889E+00   -.112E+00 0.148E-01 -.299E-02
   0.121E+01 0.957E+01 -.116E+01   -.116E+01 -.964E+01 0.116E+01   -.221E-01 0.113E+00 -.711E-03
   -.167E+02 0.104E+02 -.486E+00   0.169E+02 -.108E+02 0.486E+00   -.316E+00 0.373E+00 -.136E-02
   -.108E+02 0.577E+00 -.109E+01   0.109E+02 -.944E+00 0.109E+01   -.133E+00 0.279E+00 -.205E-02
   0.246E+01 0.152E+01 -.137E+01   -.267E+01 -.162E+01 0.137E+01   0.192E+00 0.394E-01 -.254E-02
   0.871E+00 0.521E+01 -.139E+01   -.728E+00 -.529E+01 0.139E+01   -.155E+00 0.113E+00 -.129E-02
   -.117E+02 -.172E+01 -.463E+00   0.124E+02 0.171E+01 0.469E+00   -.433E+00 0.304E-01 -.867E-02
   -.116E+02 -.775E+00 -.639E+00   0.119E+02 0.730E+00 0.634E+00   -.321E+00 0.112E+00 0.495E-02
   0.658E+01 -.567E+00 -.190E+01   -.650E+01 0.550E+00 0.190E+01   -.604E-01 0.766E-02 -.283E-02
   0.105E+01 -.633E+01 -.109E+01   -.891E+00 0.640E+01 0.109E+01   -.174E+00 -.104E+00 0.552E-03
   -.153E+02 -.105E+02 -.527E+00   0.156E+02 0.110E+02 0.526E+00   -.408E+00 -.375E+00 -.765E-03
   -.104E+02 -.620E-01 -.590E+00   0.107E+02 0.212E-01 0.587E+00   -.309E+00 -.733E-01 0.121E-02
   0.252E+01 -.201E+01 -.759E+00   -.265E+01 0.207E+01 0.758E+00   0.183E+00 -.422E-01 0.547E-02
   0.424E+00 -.868E+01 -.224E+00   -.377E+00 0.880E+01 0.224E+00   -.546E-01 -.102E+00 0.596E-02
   -.293E+01 -.528E+01 -.117E+01   0.338E+01 0.531E+01 0.117E+01   -.403E+00 -.366E-01 0.159E-02
   -.917E+01 -.189E+00 -.595E+00   0.935E+01 0.577E+00 0.597E+00   -.165E+00 -.307E+00 0.824E-04
   -.859E+01 -.218E+01 -.308E+00   0.869E+01 0.221E+01 0.310E+00   -.107E+00 -.328E-01 0.250E-02
   0.507E+00 0.515E+02 0.322E+01   0.196E+02 -.503E+02 -.344E+01   -.194E+02 -.125E+01 0.209E+00
   -.215E+02 -.474E+02 0.490E+00   0.414E+02 0.462E+02 -.629E+00   -.191E+02 0.104E+01 0.128E+00
   0.291E+02 0.243E+02 0.217E+01   -.396E+02 -.689E+01 -.233E+01   0.997E+01 -.167E+02 0.162E+00
   0.821E-01 -.248E+02 0.302E+01   -.210E+02 0.243E+02 -.320E+01   0.201E+02 0.627E+00 0.183E+00
   -.667E+02 -.272E+02 0.739E+01   0.867E+02 0.276E+02 -.766E+01   -.196E+02 -.203E+00 0.267E+00
   0.166E+02 0.121E+02 0.161E+01   -.368E+02 -.118E+02 -.172E+01   0.193E+02 -.488E+00 0.109E+00
   0.364E+02 -.128E+01 -.293E+00   -.471E+02 -.163E+02 0.222E+00   0.101E+02 0.168E+02 0.661E-01
   -.278E+02 0.267E+02 0.995E+01   0.271E+02 -.242E+02 -.991E+01   0.100E+01 -.283E+01 -.257E-01
   -.200E+02 -.333E+02 0.569E+01   0.191E+02 0.310E+02 -.568E+01   0.102E+01 0.267E+01 -.968E-02
 -----------------------------------------------------------------------------------------------
   0.836E+00 0.577E+00 -.982E+00   0.124E-12 0.224E-12 0.711E-14   -.611E+00 -.545E+00 0.882E+00
 
 
 POSITION                                       TOTAL-FORCE (eV/Angst)
 -----------------------------------------------------------------------------------
      2.97616     12.23765      9.99510         0.014394     -0.034280     -0.002048
      0.76518      1.22097      9.99850        -0.015717      0.046593     -0.001891
      1.51804     12.23689      9.99749        -0.051359     -0.041045     -0.000816
      3.67610      1.27917      9.99089         0.038684     -0.070607      0.000076
      2.90976      2.51755      9.98974         0.135407      0.495851     -0.001663
      0.67254      3.65370      9.99986         0.047246      0.028598     -0.000882
      1.45905      2.46148      9.99631        -0.126055     -0.028576     -0.000141
      2.73921      4.88622      9.98986        -0.007365     -0.550037     -0.002702
      0.63463      6.11537     10.00413        -0.033783      0.002698     -0.007797
      1.34326      4.88848      9.99962         0.060108     -0.014116     -0.005314
      3.43746      6.10983      9.98529         1.131999     -0.031554     -0.008043
      2.74106      7.33722      9.99479        -0.023200      0.508282     -0.004725
      0.67689      8.57762     10.00203        -0.032792     -0.023281     -0.001505
      1.34316      7.33945     10.00253         0.086042     -0.020501     -0.008243
      2.91011      9.71965      9.99647         0.028448     -0.328387     -0.006241
      0.77190     11.01628      9.99921         0.005842      0.028174     -0.000154
      1.46296      9.77400      9.99980        -0.011561      0.005447     -0.003132
      3.68219     10.95654      9.99566        -0.075399      0.052492     -0.003095
      7.24831      0.00280      9.99916        -0.058556      0.015306     -0.006060
      5.12908      1.28374      9.99037         0.167952      0.288884     -0.000392
      5.81731      0.00380      9.99592         0.073537     -0.025767     -0.005009
      7.97362      1.22805      9.99824         0.050350      0.043946     -0.004568
      7.24812      2.44734      9.99121        -0.221802     -0.069029     -0.002509
      7.95731      3.70133      9.99002        -0.009084      0.228801     -0.001270
      7.88845      6.11334      9.98860        -0.406838     -0.030311     -0.001559
      7.97167      8.54227      9.99463         0.060895     -0.258361     -0.003832
      7.26185      9.79864      9.99731        -0.309609      0.141502     -0.006754
      5.13744     10.96339      9.99551         0.282428     -0.302494     -0.005343
      7.98489     11.01727     10.00097         0.040548     -0.054716     -0.006484
     11.57318      0.00038     10.00073        -0.044645      0.008181      0.001517
      9.40556      1.21982     10.00094         0.014601      0.058913     -0.002784
     10.13614      0.00184     10.00169         0.031074     -0.023829     -0.000435
     12.29770      1.22215     10.00085         0.004701     -0.023114     -0.001483
     11.54153      2.43265     10.00170         0.035826      0.065050     -0.002787
      9.37366      3.66598      9.99658        -0.117567     -0.058976     -0.001325
     10.10952      2.43906     10.00044        -0.039366     -0.082765     -0.001903
     12.23209      3.66034     10.00210        -0.007452     -0.070592     -0.001066
     11.49898      4.88867     10.00219        -0.018804      0.047495     -0.000522
      9.33972      6.11663      9.99584         0.211878      0.017937     -0.003098
     10.07691      4.89657      9.99826         0.007470      0.068073     -0.000017
     12.20538      6.11636     10.00389         0.015218     -0.008817     -0.003094
     11.50174      7.34550     10.00167        -0.020095     -0.038687      0.001369
      9.38468      8.57426      9.99789        -0.185888      0.086057     -0.001733
     10.07872      7.33801      9.99855         0.009809     -0.111984     -0.001490
     12.23700      8.57340     10.00113         0.056800      0.031557      0.004678
     11.54969      9.80499      9.99967        -0.003925     -0.002053      0.005870
      9.41619     11.02228     10.00134         0.032057     -0.019996     -0.001674
     10.11972      9.80139      9.99981         0.001648      0.073902      0.002008
     12.30452     11.01597      9.99966        -0.023991     -0.006753      0.004315
      3.52679      3.75525      9.98295        -0.983228     -0.169273      0.012707
      3.52001      8.47484      9.99174        -0.771863     -0.020714      0.000137
      5.86666      2.46999      9.98535         0.277602     -0.734179      0.014024
      7.21269      4.89007      9.98294         0.920968      0.219665      0.013118
      4.78686      6.09681      9.97283        -1.368507      0.205644      0.019307
      7.23329      7.34938      9.98770         0.838008     -0.195978      0.007156
      5.87988      9.78087      9.99392         0.314763      0.681932      0.001064
      5.34764      4.33742      9.97468         0.003433     -0.331306      0.024855
      5.36136      7.88607      9.98186        -0.031287      0.331105      0.013385
 -----------------------------------------------------------------------------------
    total drift:                                0.000695      0.002194     -0.001587


--------------------------------------------------------------------------------------------------------



  FREE ENERGIE OF THE ION-ELECTRON SYSTEM (eV)
  ---------------------------------------------------
  free  energy   TOTEN  =      -609.83876253 eV

  energy  without entropy=     -609.83851253  energy(sigma->0) =     -609.83863753
 


--------------------------------------------------------------------------------------------------------


    POTLOK:  cpu time    1.8686: real time    1.8749


--------------------------------------------------------------------------------------------------------


 stress matrix after NEB project (eV)
    -44.89826     -0.16471      0.01575
     -0.16408    -42.68684      0.00261
      0.01562      0.00259     -0.44224
  FORCES: max atom, RMS     1.384006    0.409959
  FORCE total and by dimension    3.122154    1.368507
  Stress total and by dimension   61.953780   44.898263
 writing wavefunctions
     LOOP+:  cpu time18035.0090: real time18092.5031
    4ORBIT:  cpu time    0.0000: real time    0.0000
 


 total charge     
 
# of ion       s       p       d       tot
------------------------------------------
    1        0.851   1.691   0.000   2.541
    2        0.863   1.754   0.000   2.618
    3        0.858   1.753   0.000   2.611
    4        0.845   1.738   0.000   2.582
    5        0.851   1.698   0.000   2.549
    6        0.873   1.783   0.000   2.656
    7        0.862   1.769   0.000   2.631
    8        0.876   1.785   0.000   2.662
    9        0.870   1.807   0.000   2.678
   10        0.878   1.823   0.000   2.700
   11        0.885   1.796   0.000   2.681
   12        0.875   1.783   0.000   2.658
   13        0.872   1.781   0.000   2.653
   14        0.878   1.822   0.000   2.699
   15        0.850   1.697   0.000   2.547
   16        0.864   1.755   0.000   2.618
   17        0.862   1.768   0.000   2.631
   18        0.844   1.734   0.000   2.578
   19        0.871   1.758   0.000   2.629
   20        0.848   1.685   0.000   2.533
   21        0.857   1.749   0.000   2.606
   22        0.866   1.786   0.000   2.653
   23        0.863   1.738   0.000   2.602
   24        0.857   1.733   0.000   2.590
   25        0.840   1.658   0.000   2.498
   26        0.858   1.733   0.000   2.591
   27        0.863   1.739   0.000   2.602
   28        0.848   1.686   0.000   2.534
   29        0.867   1.788   0.000   2.655
   30        0.868   1.771   0.000   2.639
   31        0.869   1.789   0.000   2.658
   32        0.867   1.776   0.000   2.643
   33        0.863   1.765   0.000   2.629
   34        0.870   1.778   0.000   2.647
   35        0.869   1.786   0.000   2.655
   36        0.867   1.783   0.000   2.650
   37        0.869   1.791   0.000   2.660
   38        0.868   1.784   0.000   2.651
   39        0.863   1.767   0.000   2.629
   40        0.870   1.780   0.000   2.650
   41        0.875   1.792   0.000   2.667
   42        0.867   1.783   0.000   2.650
   43        0.870   1.788   0.000   2.658
   44        0.869   1.777   0.000   2.647
   45        0.869   1.790   0.000   2.658
   46        0.870   1.778   0.000   2.648
   47        0.869   1.789   0.000   2.658
   48        0.867   1.784   0.000   2.651
   49        0.863   1.765   0.000   2.629
   50        1.233   2.655   0.000   3.889
   51        1.232   2.664   0.000   3.896
   52        1.228   2.655   0.000   3.882
   53        1.223   2.636   0.000   3.859
   54        1.253   2.573   0.000   3.826
   55        1.222   2.651   0.000   3.873
   56        1.229   2.654   0.000   3.883
   57        0.462   0.588   7.293   8.343
   58        0.443   0.596   6.244   7.283
--------------------------------------------------
tot         51.881 106.078  13.537 171.497
 


 magnetization (x)
 
# of ion       s       p       d       tot
------------------------------------------
    1        0.001   0.003   0.000   0.003
    2        0.001   0.009   0.000   0.010
    3       -0.002  -0.027   0.000  -0.029
    4       -0.000  -0.005   0.000  -0.006
    5        0.001   0.007   0.000   0.008
    6        0.000  -0.000   0.000  -0.000
    7       -0.001  -0.012   0.000  -0.013
    8       -0.001  -0.025   0.000  -0.025
    9       -0.001  -0.018   0.000  -0.019
   10        0.001   0.002   0.000   0.003
   11        0.002   0.006   0.000   0.008
   12       -0.002  -0.032   0.000  -0.034
   13        0.000   0.003   0.000   0.004
   14        0.001   0.005   0.000   0.006
   15        0.002   0.020   0.000   0.022
   16        0.001   0.008   0.000   0.009
   17       -0.001  -0.015   0.000  -0.016
   18       -0.001  -0.009   0.000  -0.010
   19       -0.000  -0.003   0.000  -0.004
   20        0.001   0.009   0.000   0.010
   21       -0.001  -0.012   0.000  -0.013
   22       -0.000  -0.004   0.000  -0.004
   23        0.001   0.004   0.000   0.005
   24       -0.001  -0.018   0.000  -0.019
   25       -0.000  -0.005   0.000  -0.005
   26       -0.001  -0.019   0.000  -0.020
   27        0.000  -0.005   0.000  -0.005
   28        0.001   0.010   0.000   0.011
   29        0.000  -0.001   0.000  -0.001
   30        0.001   0.004   0.000   0.005
   31        0.001   0.006   0.000   0.006
   32       -0.001  -0.012   0.000  -0.013
   33       -0.001  -0.008   0.000  -0.009
   34        0.001   0.007   0.000   0.007
   35        0.000   0.003   0.000   0.003
   36       -0.000  -0.006   0.000  -0.006
   37       -0.001  -0.014   0.000  -0.015
   38        0.000  -0.000   0.000   0.000
   39        0.000  -0.003   0.000  -0.003
   40       -0.001  -0.012   0.000  -0.012
   41        0.000  -0.000   0.000  -0.000
   42        0.000  -0.003   0.000  -0.003
   43        0.001   0.006   0.000   0.007
   44       -0.001  -0.012   0.000  -0.013
   45       -0.001  -0.015   0.000  -0.016
   46        0.001   0.009   0.000   0.010
   47        0.001   0.006   0.000   0.006
   48       -0.001  -0.007   0.000  -0.008
   49       -0.001  -0.007   0.000  -0.008
   50       -0.004  -0.036   0.000  -0.039
   51        0.003  -0.014   0.000  -0.011
   52       -0.003  -0.025   0.000  -0.028
   53       -0.003  -0.024   0.000  -0.026
   54       -0.004  -0.137   0.000  -0.140
   55        0.003  -0.002   0.000   0.001
   56        0.003   0.002   0.000   0.005
   57        0.005  -0.000   0.974   0.980
   58       -0.039  -0.022  -2.034  -2.096
--------------------------------------------------
tot         -0.040  -0.443  -1.060  -1.544
 

 total amount of memory used by VASP MPI-rank0   154853. kBytes
=======================================================================

   base      :      30000. kBytes
   nonl-proj :       4268. kBytes
   fftplans  :      11188. kBytes
   grid      :      29312. kBytes
   one-center:         62. kBytes
   HF        :         23. kBytes
   nonlr-proj:      16964. kBytes
   wavefun   :      63036. kBytes
 
  
  
 General timing and accounting informations for this job:
 ========================================================
  
                  Total CPU time used (sec):    18069.186
                            User time (sec):    18008.059
                          System time (sec):       61.127
                         Elapsed time (sec):    18133.393
  
                   Maximum memory used (kb):      389888.
                   Average memory used (kb):           0.
  
                          Minor page faults:      1621273
                          Major page faults:          180
                 Voluntary context switches:       244479
