 vasp.5.4.4.18Apr17-6-g9f103f2a35 (build Feb 25 2019 10:51:38) complex          
  
 executed on             LinuxIFC date 2021.08.09  12:38:21
 running on   32 total cores
 distrk:  each k-point on   32 cores,    1 groups
 distr:  one band on NCORES_PER_BAND=  32 cores,    1 groups


--------------------------------------------------------------------------------------------------------


 INCAR:
 POTCAR:    PAW_PBE C 08Apr2002                   
 POTCAR:    PAW_PBE N 08Apr2002                   
 POTCAR:    PAW_PBE Fe 06Sep2000                  
 POTCAR:    PAW_PBE Cu 22Jun2005                  

 ----------------------------------------------------------------------------- 
|                                                                             |
|           W    W    AA    RRRRR   N    N  II  N    N   GGGG   !!!           |
|           W    W   A  A   R    R  NN   N  II  NN   N  G    G  !!!           |
|           W    W  A    A  R    R  N N  N  II  N N  N  G       !!!           |
|           W WW W  AAAAAA  RRRRR   N  N N  II  N  N N  G  GGG   !            |
|           WW  WW  A    A  R   R   N   NN  II  N   NN  G    G                |
|           W    W  A    A  R    R  N    N  II  N    N   GGGG   !!!           |
|                                                                             |
|      For optimal performance we recommend to set                            |
|        NCORE= 4 - approx SQRT( number of cores)                             |
|      NCORE specifies how many cores store one orbital (NPAR=cpu/NCORE).     |
|      This setting can  greatly improve the performance of VASP for DFT.     |
|      The default,   NCORE=1            might be grossly inefficient         |
|      on modern multi-core architectures or massively parallel machines.     |
|      Do your own testing !!!!                                               |
|      Unfortunately you need to use the default for GW and RPA calculations. |
|      (for HF NCORE is supported but not extensively tested yet)             |
|                                                                             |
 ----------------------------------------------------------------------------- 

 POTCAR:    PAW_PBE C 08Apr2002                   
   VRHFIN =C: s2p2                                                              
   LEXCH  = PE                                                                  
   EATOM  =   147.1560 eV,   10.8157 Ry                                         
                                                                                
   TITEL  = PAW_PBE C 08Apr2002                                                 
   LULTRA =        F    use ultrasoft PP ?                                      
   IUNSCR =        1    unscreen: 0-lin 1-nonlin 2-no                           
   RPACOR =    1.200    partial core radius                                     
   POMASS =   12.011; ZVAL   =    4.000    mass and valenz                      
   RCORE  =    1.500    outmost cutoff radius                                   
   RWIGS  =    1.630; RWIGS  =    0.863    wigner-seitz radius (au A)           
   ENMAX  =  400.000; ENMIN  =  300.000 eV                                      
   ICORE  =        2    local potential                                         
   LCOR   =        T    correct aug charges                                     
   LPAW   =        T    paw PP                                                  
   EAUG   =  644.873                                                            
   DEXC   =    0.000                                                            
   RMAX   =    1.529    core radius for proj-oper                               
   RAUG   =    1.300    factor for augmentation sphere                          
   RDEP   =    1.501    radius for radial grids                                 
   RDEPT  =    1.300    core radius for aug-charge                              
                                                                                
   Atomic configuration                                                         
    4 entries                                                                   
     n  l   j            E        occ.                                          
     1  0  0.50      -273.3789   2.0000                                         
     2  0  0.50       -13.7508   2.0000                                         
     2  1  0.50        -5.2854   2.0000                                         
     3  2  1.50        -5.4423   0.0000                                         
   Description                                                                  
     l       E           TYP  RCUT    TYP  RCUT                                 
     0    -13.7508458     23  1.200                                             
     0     -8.2022199     23  1.200                                             
     1     -5.2854383     23  1.500                                             
     1     34.0145650     23  1.500                                             
     2     -5.4423304      7  1.500                                             
  local pseudopotential read in
  partial core-charges read in
  partial kinetic energy density read in
  atomic valenz-charges read in
  non local Contribution for L=           0  read in
    real space projection operators read in
  non local Contribution for L=           0  read in
    real space projection operators read in
  non local Contribution for L=           1  read in
    real space projection operators read in
  non local Contribution for L=           1  read in
    real space projection operators read in
    PAW grid and wavefunctions read in
 
   number of l-projection  operators is LMAX  =           4
   number of lm-projection operators is LMMAX =           8
 
 POTCAR:    PAW_PBE N 08Apr2002                   
   VRHFIN =N: s2p3                                                              
   LEXCH  = PE                                                                  
   EATOM  =   264.5486 eV,   19.4438 Ry                                         
                                                                                
   TITEL  = PAW_PBE N 08Apr2002                                                 
   LULTRA =        F    use ultrasoft PP ?                                      
   IUNSCR =        1    unscreen: 0-lin 1-nonlin 2-no                           
   RPACOR =    1.200    partial core radius                                     
   POMASS =   14.001; ZVAL   =    5.000    mass and valenz                      
   RCORE  =    1.500    outmost cutoff radius                                   
   RWIGS  =    1.400; RWIGS  =    0.741    wigner-seitz radius (au A)           
   ENMAX  =  400.000; ENMIN  =  300.000 eV                                      
   ICORE  =        2    local potential                                         
   LCOR   =        T    correct aug charges                                     
   LPAW   =        T    paw PP                                                  
   EAUG   =  627.112                                                            
   DEXC   =    0.000                                                            
   RMAX   =    1.529    core radius for proj-oper                               
   RAUG   =    1.300    factor for augmentation sphere                          
   RDEP   =    1.514    radius for radial grids                                 
   RDEPT  =    1.338    core radius for aug-charge                              
                                                                                
   Atomic configuration                                                         
    4 entries                                                                   
     n  l   j            E        occ.                                          
     1  0  0.50      -384.7179   2.0000                                         
     2  0  0.50       -18.5828   2.0000                                         
     2  1  0.50        -7.0898   3.0000                                         
     3  2  1.50        -6.8029   0.0000                                         
   Description                                                                  
     l       E           TYP  RCUT    TYP  RCUT                                 
     0    -18.5828119     23  1.200                                             
     0    -13.5018863     23  1.200                                             
     1     -7.0897853     23  1.500                                             
     1      9.5240782     23  1.500                                             
     2     -6.8029130      7  1.500                                             
  local pseudopotential read in
  partial core-charges read in
  partial kinetic energy density read in
  atomic valenz-charges read in
  non local Contribution for L=           0  read in
    real space projection operators read in
  non local Contribution for L=           0  read in
    real space projection operators read in
  non local Contribution for L=           1  read in
    real space projection operators read in
  non local Contribution for L=           1  read in
    real space projection operators read in
    PAW grid and wavefunctions read in
 
   number of l-projection  operators is LMAX  =           4
   number of lm-projection operators is LMMAX =           8
 
 POTCAR:    PAW_PBE Fe 06Sep2000                  
   VRHFIN =Fe:  d7 s1                                                           
   LEXCH  = PE                                                                  
   EATOM  =   594.3153 eV,   43.6809 Ry                                         
                                                                                
   TITEL  = PAW_PBE Fe 06Sep2000                                                
   LULTRA =        F    use ultrasoft PP ?                                      
   IUNSCR =        1    unscreen: 0-lin 1-nonlin 2-no                           
   RPACOR =    2.000    partial core radius                                     
   POMASS =   55.847; ZVAL   =    8.000    mass and valenz                      
   RCORE  =    2.300    outmost cutoff radius                                   
   RWIGS  =    2.460; RWIGS  =    1.302    wigner-seitz radius (au A)           
   ENMAX  =  267.882; ENMIN  =  200.911 eV                                      
   RCLOC  =    1.701    cutoff for local pot                                    
   LCOR   =        T    correct aug charges                                     
   LPAW   =        T    paw PP                                                  
   EAUG   =  511.368                                                            
   DEXC   =    0.000                                                            
   RMAX   =    2.356    core radius for proj-oper                               
   RAUG   =    1.300    factor for augmentation sphere                          
   RDEP   =    2.442    radius for radial grids                                 
   RDEPT  =    1.890    core radius for aug-charge                              
                                                                                
   Atomic configuration                                                         
    9 entries                                                                   
     n  l   j            E        occ.                                          
     1  0  0.50     -6993.8440   2.0000                                         
     2  0  0.50      -814.6047   2.0000                                         
     2  1  1.50      -693.3689   6.0000                                         
     3  0  0.50       -89.4732   2.0000                                         
     3  1  1.50       -55.6373   6.0000                                         
     3  2  2.50        -3.8151   7.0000                                         
     4  0  0.50        -4.2551   1.0000                                         
     4  1  1.50        -3.4015   0.0000                                         
     4  3  2.50        -1.3606   0.0000                                         
   Description                                                                  
     l       E           TYP  RCUT    TYP  RCUT                                 
     2     -3.8151135     23  2.300                                             
     2     -5.1756961     23  2.300                                             
     0     -4.2550963     23  2.300                                             
     0      7.2035603     23  2.300                                             
     1     -2.7211652     23  2.300                                             
     1     18.4316424     23  2.300                                             
  local pseudopotential read in
  partial core-charges read in
  partial kinetic energy density read in
  atomic valenz-charges read in
  non local Contribution for L=           2  read in
    real space projection operators read in
  non local Contribution for L=           2  read in
    real space projection operators read in
  non local Contribution for L=           0  read in
    real space projection operators read in
  non local Contribution for L=           0  read in
    real space projection operators read in
  non local Contribution for L=           1  read in
    real space projection operators read in
  non local Contribution for L=           1  read in
    real space projection operators read in
    PAW grid and wavefunctions read in
 
   number of l-projection  operators is LMAX  =           6
   number of lm-projection operators is LMMAX =          18
 
 POTCAR:    PAW_PBE Cu 22Jun2005                  
   VRHFIN =Cu: d10 p1                                                           
   LEXCH  = PE                                                                  
   EATOM  =  1390.9808 eV,  102.2342 Ry                                         
                                                                                
   TITEL  = PAW_PBE Cu 22Jun2005                                                
   LULTRA =        F    use ultrasoft PP ?                                      
   IUNSCR =        1    unscreen: 0-lin 1-nonlin 2-no                           
   RPACOR =    2.000    partial core radius                                     
   POMASS =   63.546; ZVAL   =   11.000    mass and valenz                      
   RCORE  =    2.300    outmost cutoff radius                                   
   RWIGS  =    2.200; RWIGS  =    1.164    wigner-seitz radius (au A)           
   ENMAX  =  295.446; ENMIN  =  221.585 eV                                      
   ICORE  =        3    local potential                                         
   LCOR   =        T    correct aug charges                                     
   LPAW   =        T    paw PP                                                  
   EAUG   =  586.980                                                            
   DEXC   =    0.000                                                            
   RMAX   =    2.344    core radius for proj-oper                               
   RAUG   =    1.300    factor for augmentation sphere                          
   RDEP   =    2.302    radius for radial grids                                 
   RDEPT  =    1.771    core radius for aug-charge                              
                                                                                
   Atomic configuration                                                         
    9 entries                                                                   
     n  l   j            E        occ.                                          
     1  0  0.50     -8850.2468   2.0000                                         
     2  0  0.50     -1062.3498   2.0000                                         
     2  1  1.50      -916.8226   6.0000                                         
     3  0  0.50      -114.6929   2.0000                                         
     3  1  1.50       -72.1325   6.0000                                         
     3  2  2.50        -5.0394  10.0000                                         
     4  0  0.50        -4.6097   1.0000                                         
     4  1  0.50        -4.0817   0.0000                                         
     4  3  2.50        -1.3606   0.0000                                         
   Description                                                                  
     l       E           TYP  RCUT    TYP  RCUT                                 
     2     -5.0393973     23  2.200                                             
     2     10.8846608     23  2.200                                             
     0     -4.6097109     23  2.200                                             
     0      8.2520465     23  2.200                                             
     1     -2.7211652     23  2.200                                             
     1     21.7055443     23  2.200                                             
     3      2.7211652     23  2.300                                             
  local pseudopotential read in
  partial core-charges read in
  partial kinetic energy density read in
  atomic valenz-charges read in
  non local Contribution for L=           2  read in
    real space projection operators read in
  non local Contribution for L=           2  read in
    real space projection operators read in
  non local Contribution for L=           0  read in
    real space projection operators read in
  non local Contribution for L=           0  read in
    real space projection operators read in
  non local Contribution for L=           1  read in
    real space projection operators read in
  non local Contribution for L=           1  read in
    real space projection operators read in
    PAW grid and wavefunctions read in
 
   number of l-projection  operators is LMAX  =           6
   number of lm-projection operators is LMMAX =          18
 

 ----------------------------------------------------------------------------- 
|                                                                             |
|  ADVICE TO THIS USER RUNNING 'VASP/VAMP'   (HEAR YOUR MASTER'S VOICE ...):  |
|                                                                             |
|      You have a (more or less) 'large supercell' and for larger cells       |
|      it might be more efficient to use real space projection opertators     |
|      So try LREAL= Auto  in the INCAR   file.                               |
|      Mind:          For very  accurate calculation you might also keep the  |
|      reciprocal projection scheme          (i.e. LREAL=.FALSE.)             |
|                                                                             |
 ----------------------------------------------------------------------------- 

  PAW_PBE C 08Apr2002                   :
 energy of atom  1       EATOM= -147.1560
 kinetic energy error for atom=    0.0076 (will be added to EATOM!!)
  PAW_PBE N 08Apr2002                   :
 energy of atom  2       EATOM= -264.5486
 kinetic energy error for atom=    0.0138 (will be added to EATOM!!)
  PAW_PBE Fe 06Sep2000                  :
 energy of atom  3       EATOM= -594.3153
 kinetic energy error for atom=    0.0026 (will be added to EATOM!!)
  PAW_PBE Cu 22Jun2005                  :
 energy of atom  4       EATOM=-1390.9808
 kinetic energy error for atom=    0.0043 (will be added to EATOM!!)
 
 
 POSCAR:  C  N Fe Cu                             
  positions in cartesian coordinates
  No initial velocities read in
 exchange correlation table for  LEXCH =        8
   RHO(1)=    0.500       N(1)  =     2000
   RHO(2)=  100.500       N(2)  =     4000

 VTST: version 3.2, (02/03/18)

 CHAIN: initializing optimizer
 
 OPT: Using VASP Conjugate-Gradient optimizer
 CHAIN: Read ICHAIN            0
 
 POSCAR:  C  N Fe Cu                             
  positions in cartesian coordinates
  No initial velocities read in
 


--------------------------------------------------------------------------------------------------------


 ion  position               nearest neighbor table
   1  0.221  0.999  0.500-   4 1.42  19 1.43   3 1.44
   2  0.052  0.101  0.500-   7 1.42   3 1.43  34 1.44
   3  0.110  0.001  0.500-  17 1.42   2 1.43   1 1.44
   4  0.275  0.099  0.500-   1 1.42   5 1.42  21 1.43
   5  0.218  0.199  0.500-   8 1.41   4 1.42   7 1.43
   6  0.052  0.301  0.500-   7 1.41  11 1.43  38 1.43
   7  0.107  0.200  0.500-   6 1.41   2 1.42   5 1.43
   8  0.272  0.298  0.500-  51 1.38   5 1.41   9 1.42
   9  0.218  0.400  0.500-  50 1.40  11 1.41   8 1.42
  10  0.055  0.502  0.500-  11 1.41  41 1.42  14 1.43
  11  0.109  0.400  0.500-   9 1.41  10 1.41   6 1.43
  12  0.226  0.595  0.500-  50 1.38  14 1.44  15 1.47
  13  0.058  0.701  0.500-  18 1.42  14 1.43  45 1.43
  14  0.114  0.600  0.500-  13 1.43  10 1.43  12 1.44
  15  0.284  0.697  0.500-  53 1.37  16 1.44  12 1.47
  16  0.224  0.798  0.500-  19 1.43  18 1.44  15 1.44
  17  0.055  0.901  0.500-   3 1.42  18 1.43  49 1.44
  18  0.113  0.800  0.500-  13 1.42  17 1.43  16 1.44
  19  0.278  0.898  0.500-  16 1.43   1 1.43  28 1.43
  20  0.553  0.002  0.500-  22 1.43  30 1.43  23 1.45
  21  0.386  0.101  0.500-   4 1.43  22 1.43  25 1.45
  22  0.443  0.000  0.500-  20 1.43  21 1.43  28 1.44
  23  0.606  0.105  0.500-  24 1.44  32 1.44  20 1.45
  24  0.549  0.206  0.500-  23 1.44  25 1.44  26 1.46
  25  0.438  0.205  0.500-  51 1.38  24 1.44  21 1.45
  26  0.605  0.309  0.500-  52 1.34  36 1.46  24 1.46
  27  0.558  0.795  0.500-  54 1.37  30 1.45  29 1.49
  28  0.389  0.898  0.500-  19 1.43  22 1.44  29 1.45
  29  0.443  0.793  0.500-  53 1.37  28 1.45  27 1.49
  30  0.609  0.900  0.500-  20 1.43  47 1.44  27 1.45
  31  0.886  0.003  0.500-  34 1.42  49 1.43  33 1.44
  32  0.718  0.106  0.500-  33 1.43  37 1.44  23 1.44
  33  0.775  0.004  0.500-  47 1.43  32 1.43  31 1.44
  34  0.941  0.103  0.500-  31 1.42  35 1.43   2 1.44
  35  0.885  0.204  0.500-  38 1.43  34 1.43  37 1.44
  36  0.718  0.309  0.500-  37 1.44  40 1.45  26 1.46
  37  0.773  0.207  0.500-  36 1.44  32 1.44  35 1.44
  38  0.941  0.303  0.500-  39 1.42  35 1.43   6 1.43
  39  0.888  0.404  0.500-  38 1.42  41 1.43  40 1.44
  40  0.776  0.409  0.500-  55 1.36  39 1.44  36 1.45
  41  0.945  0.503  0.500-  42 1.42  10 1.42  39 1.43
  42  0.891  0.604  0.500-  44 1.41  41 1.42  45 1.42
  43  0.723  0.705  0.500-  54 1.38  48 1.42  44 1.44
  44  0.782  0.604  0.500-  55 1.36  42 1.41  43 1.44
  45  0.947  0.703  0.500-  42 1.42  46 1.42  13 1.43
  46  0.890  0.803  0.500-  49 1.42  45 1.42  48 1.44
  47  0.721  0.903  0.500-  48 1.42  33 1.43  30 1.44
  48  0.778  0.804  0.500-  43 1.42  47 1.42  46 1.44
  49  0.944  0.903  0.500-  46 1.42  31 1.43  17 1.44
  50  0.276  0.495  0.499-  12 1.38   9 1.40  56 1.93
  51  0.379  0.300  0.499-  25 1.38   8 1.38  56 1.94
  52  0.549  0.402  0.500-  26 1.34  56 1.77  57 1.81
  53  0.390  0.697  0.500-  29 1.37  15 1.37
  54  0.616  0.701  0.500-  27 1.37  43 1.38  57 1.96
  55  0.729  0.509  0.501-  40 1.36  44 1.36  57 1.93
  56  0.420  0.452  0.499-  52 1.77  50 1.93  51 1.94  57 2.41
  57  0.582  0.545  0.501-  52 1.81  55 1.93  54 1.96  56 2.41
 
  LATTYP: Found a triclinic cell.
 ALAT       =    12.8959806808
 B/A-ratio  =     0.9515719622
 C/A-ratio  =     1.5568561621
 COS(alpha) =     0.0004575464
 COS(beta)  =     0.0014205327
 COS(gamma) =     0.0154677169
  
  Lattice vectors:
  
 A1 = (  12.8956021219,   0.0983565312,   0.0094670939)
 A2 = (   0.0962211759,  12.2710758922,   0.0035194116)
 A3 = (   0.0137564809,   0.0033204127,  20.0771820024)


Analysis of symmetry for initial positions (statically):
=====================================================================
 Subroutine PRICEL returns:
 Original cell was already a primitive cell.
 

 Routine SETGRP: Setting up the symmetry group for a 
 triclinic supercell.


 Subroutine GETGRP returns: Found  1 space group operations
 (whereof  1 operations were pure point group operations)
 out of a pool of  2 trial point group operations.


The static configuration has the point symmetry C_1 .


Analysis of symmetry for dynamics (positions and initial velocities):
=====================================================================
 Subroutine PRICEL returns:
 Original cell was already a primitive cell.
 

 Routine SETGRP: Setting up the symmetry group for a 
 triclinic supercell.


 Subroutine GETGRP returns: Found  1 space group operations
 (whereof  1 operations were pure point group operations)
 out of a pool of  2 trial point group operations.


The dynamic configuration has the point symmetry C_1 .


Analysis of structural, dynamic, and magnetic symmetry:
=====================================================================
 Subroutine PRICEL returns:
 Original cell was already a primitive cell.
 

 Routine SETGRP: Setting up the symmetry group for a 
 triclinic supercell.


 Subroutine GETGRP returns: Found  1 space group operations
 (whereof  1 operations were pure point group operations)
 out of a pool of  2 trial point group operations.


The magnetic configuration has the point symmetry C_1 .


 Subroutine INISYM returns: Found  1 space group operations
 (whereof  1 operations are pure point group operations),
 and found     1 'primitive' translations

 
 
 KPOINTS: KPOINTS created by Atomic Simulation Env

Automatic generation of k-mesh.
Space group operators:
 irot       det(A)        alpha          n_x          n_y          n_z        tau_x        tau_y        tau_z
    1     1.000000     0.000000     1.000000     0.000000     0.000000     0.000000     0.000000     0.000000
 
 Subroutine IBZKPT returns following result:
 ===========================================
 
 Found      2 irreducible k-points:
 
 Following reciprocal coordinates:
            Coordinates               Weight
  0.250000  0.250000  0.000000      2.000000
 -0.250000  0.250000  0.000000      2.000000
 
 Following cartesian coordinates:
            Coordinates               Weight
  0.019232  0.020222 -0.000017      2.000000
 -0.019543  0.020526  0.000010      2.000000
 
 
 Subroutine IBZKPT_HF returns following result:
 ==============================================
 
 Found      4 k-points in 1st BZ
 the following      4 k-points will be used (e.g. in the exchange kernel)
 Following reciprocal coordinates:   # in IRBZ
  0.250000  0.250000  0.000000    0.25000000   1 t-inv F
 -0.250000  0.250000  0.000000    0.25000000   2 t-inv F
 -0.250000 -0.250000 -0.000000    0.25000000   1 t-inv T
  0.250000 -0.250000 -0.000000    0.25000000   2 t-inv T


--------------------------------------------------------------------------------------------------------




 Dimension of arrays:
   k-points           NKPTS =      2   k-points in BZ     NKDIM =      4   number of bands    NBANDS=    155
   number of dos      NEDOS =    301   number of ions     NIONS =     57
   non local maximal  LDIM  =      6   non local SUM 2l+1 LMDIM =     18
   total plane-waves  NPLWV = ******
   max r-space proj   IRMAX =      1   max aug-charges    IRDMAX=  14730
   dimension x,y,z NGX =    96 NGY =   90 NGZ =  150
   dimension x,y,z NGXF=   192 NGYF=  180 NGZF=  300
   support grid    NGXF=   192 NGYF=  180 NGZF=  300
   ions per type =              49   6   1   1
   NGX,Y,Z   is equivalent  to a cutoff of  12.38, 12.19, 12.42 a.u.
   NGXF,Y,Z  is equivalent  to a cutoff of  24.75, 24.39, 24.84 a.u.

 SYSTEM =  unknown system                          
 POSCAR =   C  N Fe Cu                             

 Startparameter for this run:
   NWRITE =      2    write-flag & timer
   PREC   = accura    normal or accurate (medium, high low for compatibility)
   ISTART =      1    job   : 0-new  1-cont  2-samecut
   ICHARG =      0    charge: 1-file 2-atom 10-const
   ISPIN  =      2    spin polarized calculation?
   LNONCOLLINEAR =      F non collinear calculations
   LSORBIT =      F    spin-orbit coupling
   INIWAV =      1    electr: 0-lowe 1-rand  2-diag
   LASPH  =      T    aspherical Exc in radial PAW
   METAGGA=      F    non-selfconsistent MetaGGA calc.

 Electronic Relaxation 1
   ENCUT  =  500.0 eV  36.75 Ry    6.06 a.u.  23.51 22.37 36.61*2*pi/ulx,y,z
   ENINI  =  500.0     initial cutoff
   ENAUG  =  644.9 eV  augmentation charge cutoff
   NELM   =    250;   NELMIN=  2; NELMDL=  0     # of ELM steps 
   EDIFF  = 0.1E-03   stopping-criterion for ELM
   LREAL  =      F    real-space projection
   NLSPLINE    = F    spline interpolate recip. space projectors
   LCOMPAT=      F    compatible to vasp.4.4
   GGA_COMPAT  = T    GGA compatible to vasp.4.4-vasp.4.6
   LMAXPAW     = -100 max onsite density
   LMAXMIX     =    2 max onsite mixed and CHGCAR
   VOSKOWN=      0    Vosko Wilk Nusair interpolation
   ROPT   =    0.00000   0.00000   0.00000   0.00000
 Ionic relaxation
   EDIFFG = -.3E-01   stopping-criterion for IOM
   NSW    =      0    number of steps for IOM
   NBLOCK =      1;   KBLOCK =      1    inner block; outer block 
   IBRION =     -1    ionic relax: 0-MD 1-quasi-New 2-CG
   NFREE  =      1    steps in history (QN), initial steepest desc. (CG)
   ISIF   =      2    stress and relaxation
   IWAVPR =     10    prediction:  0-non 1-charg 2-wave 3-comb
   ISYM   =      3    0-nonsym 1-usesym 2-fastsym
   LCORR  =      T    Harris-Foulkes like correction to forces

   POTIM  = 0.5000    time-step for ionic-motion
   TEIN   =    0.0    initial temperature
   TEBEG  =    0.0;   TEEND  =   0.0 temperature during run
   SMASS  =  -3.00    Nose mass-parameter (am)
   estimated Nose-frequenzy (Omega)   =  0.10E-29 period in steps =****** mass=  -0.380E-26a.u.
   SCALEE = 1.0000    scale energy and forces
   NPACO  =    256;   APACO  = 16.0  distance and # of slots for P.C.
   PSTRESS=    0.0 pullay stress

  Mass of Ions in am
   POMASS =  12.01 14.00 55.85 63.55
  Ionic Valenz
   ZVAL   =   4.00  5.00  8.00 11.00
  Atomic Wigner-Seitz radii
   RWIGS  =  -1.00 -1.00 -1.00 -1.00
  virtual crystal weights 
   VCA    =   1.00  1.00  1.00  1.00
   NELECT =     245.0000    total number of electrons
   NUPDOWN=      -1.0000    fix difference up-down

 DOS related values:
   EMIN   =  10.00;   EMAX   =-10.00  energy-range for DOS
   EFERMI =   0.00
   ISMEAR =     0;   SIGMA  =   0.10  broadening in eV -4-tet -1-fermi 0-gaus

 Electronic relaxation 2 (details)
   IALGO  =     53    algorithm
   LDIAG  =      T    sub-space diagonalisation (order eigenvalues)
   LSUBROT=      F    optimize rotation matrix (better conditioning)
   TURBO    =      0    0=normal 1=particle mesh
   IRESTART =      0    0=no restart 2=restart with 2 vectors
   NREBOOT  =      0    no. of reboots
   NMIN     =      0    reboot dimension
   EREF     =   0.00    reference energy to select bands
   IMIX   =      4    mixing-type and parameters
     AMIX     =   0.40;   BMIX     =  1.00
     AMIX_MAG =   1.60;   BMIX_MAG =  1.00
     AMIN     =   0.10
     WC   =   100.;   INIMIX=   1;  MIXPRE=   1;  MAXMIX= -45

 Intra band minimization:
   WEIMIN = 0.0000     energy-eigenvalue tresh-hold
   EBREAK =  0.16E-06  absolut break condition
   DEPER  =   0.30     relativ break condition  

   TIME   =   0.20     timestep for ELM

  volume/ion in A,a.u.               =      55.73       376.12
  Fermi-wavevector in a.u.,A,eV,Ry     =   0.696835  1.316827  6.606703  0.485579
  Thomas-Fermi vector in A             =   1.779995
 
 Write flags
   LWAVE        =      T    write WAVECAR
   LDOWNSAMPLE  =      F    k-point downsampling of WAVECAR
   LCHARG       =      T    write CHGCAR
   LVTOT        =      F    write LOCPOT, total local potential
   LVHAR        =      F    write LOCPOT, Hartree potential only
   LELF         =      F    write electronic localiz. function (ELF)
   LORBIT       =     11    0 simple, 1 ext, 2 COOP (PROOUT), +10 PAW based schemes


 Dipole corrections
   LMONO  =      F    monopole corrections only (constant potential shift)
   LDIPOL =      T    correct potential (dipole corrections)
   IDIPOL =      3    1-x, 2-y, 3-z, 4-all directions 
   EPSILON=  1.0000000 bulk dielectric constant

 Exchange correlation treatment:
   GGA     =    PE    GGA type
   LEXCH   =     8    internal setting for exchange type
   VOSKOWN=      0    Vosko Wilk Nusair interpolation
   EXXOEP  =     0    0=HF, 1=EXX-LHF (local Hartree Fock) 2=EXX OEP
   LHFCALC =     T    Hartree Fock is set to
   LSYMGRAD=     F    symmetrize gradient (conserves proper symmetry)
   PRECFOCK=normal    Normal, Fast or Accurate (Low or Medium for compatibility)
   LRHFCALC=     F    long range Hartree Fock
   LRSCOR  =     F    long range correlation only (use DFT for short range part)
   LTHOMAS =     F    Thomas Fermi screening in HF
   LMODELHF=     F    short range full HF, long range fraction AEXX
   ENCUT4O =  -1.0   cutoff for four orbital integrals eV
   LMAXFOCK=     4    L truncation for augmentation on plane wave grid
   LMAXFOCKAE=  -1    L truncation for all-electron charge restoration on plane wave grid
   NMAXFOCKAE=   1    number of basis functions for all-electron charge restoration
   LFOCKAEDFT=     F  apply the AE augmentation even for DFT
   NKREDX  =     1    reduce k-point grid by
   NKREDY  =     1    reduce k-point grid by
   NKREDZ  =     1    reduce k-point grid by
   SHIFTRED=     F    shift reduced grid of Gamma
   HFKIDENT=     F    idential grid for each k-point
   ODDONLY =     F    use only odd q-grid points
   EVENONLY=     F    use only even q-grid points
   HFALPHA =   -1.0000 decay constant for conv. correction
   MCALPHA =    0.0000 extent of test-charge in conv. correction in multipole expansion
   AEXX    =    0.2500 exact exchange contribution
   HFSCREEN=    0.2000 screening length (either q_TF or 0.3 A-1)
   HFSCREENC=   0.2000 screening length for correlation (either q_TF or 0.3 A-1)
   HFRCUT  =    0.0000 spherical cutoff for potential kernel
   ALDAX   =    0.7500 LDA exchange part
   AGGAX   =    0.7500 GGA exchange part
   ALDAC   =    1.0000 LDA correlation
   AGGAC   =    1.0000 GGA correlation
   ENCUTFOCK=  -1.0 apply spherical cutoff to Coloumb kernel
   NBANDSGWLOW=     1    first orbital included in HF term
   NBLOCK_FOCK=    64    blocking factor in FOCK_ACC
 Linear response parameters
   LEPSILON=     F    determine dielectric tensor
   LRPA    =     F    only Hartree local field effects (RPA)
   LNABLA  =     F    use nabla operator in PAW spheres
   LVEL    =     F    velocity operator in full k-point grid
   LINTERFAST=   F  fast interpolation
   KINTER  =     0    interpolate to denser k-point grid
   CSHIFT  =0.1000    complex shift for real part using Kramers Kronig
   OMEGAMAX=  -1.0    maximum frequency
   DEG_THRESHOLD= 0.2000000E-02 threshold for treating states as degnerate
   RTIME   =   -0.100 relaxation time in fs
  (WPLASMAI=    0.000 imaginary part of plasma frequency in eV, 0.658/RTIME)
   DFIELD  = 0.0000000 0.0000000 0.0000000 field for delta impulse in time
 
 Orbital magnetization related:
   ORBITALMAG=     F  switch on orbital magnetization
   LCHIMAG   =     F  perturbation theory with respect to B field
   DQ        =  0.001000  dq finite difference perturbation B field
   LLRAUG    =     F  two centre corrections for induced B field



--------------------------------------------------------------------------------------------------------


 Static calculation
 charge density and potential will be updated during run
 spin polarized calculation
 Conjugate gradient for all bands (Freysoldt, et al. PRB 79, 241103 (2009))
 perform sub-space diagonalisation
    before iterative eigenvector-optimisation
 modified Broyden-mixing scheme, WC =      100.0
 initial mixing is a Kerker type mixing with AMIX =  0.4000 and BMIX =      1.0000
 Hartree-type preconditioning will be used
 using additional bands           32
 reciprocal scheme for non local part
 use partial core corrections
 no Harris-corrections to forces 
 use gradient corrections 
 use of overlap-Matrix (Vanderbilt PP)
 Gauss-broadening in eV      SIGMA  =   0.10


--------------------------------------------------------------------------------------------------------


  energy-cutoff  :      500.00
  volume of cell :     3176.88
      direct lattice vectors                 reciprocal lattice vectors
    12.895602122  0.098356531  0.009467094     0.077550494 -0.000608081 -0.000053035
     0.096221176 12.271075892  0.003519412    -0.000621582  0.081497325 -0.000013052
     0.013756481  0.003320413 20.077182002    -0.000036459 -0.000013999  0.049807814

  length of vectors
    12.895980681 12.271453641 20.077186990     0.077552896  0.081499696  0.049807829


 
 old parameters found on file WAVECAR:
  energy-cutoff  :      500.00
  volume of cell :     3176.88
      direct lattice vectors                 reciprocal lattice vectors
    12.810000000  0.000000000  0.000000000     0.078064012  0.000000000  0.000000000
     0.000000000 12.400000000  0.000000000     0.000000000  0.080645161  0.000000000
     0.000000000  0.000000000 20.000000000     0.000000000  0.000000000  0.050000000

  length of vectors

 
 k-points in units of 2pi/SCALE and weight: KPOINTS created by Atomic Simulation Env
   0.01923223  0.02022231 -0.00001652       0.500
  -0.01954302  0.02052635  0.00001000       0.500
 
 k-points in reciprocal lattice and weights: KPOINTS created by Atomic Simulation Env
   0.25000000  0.25000000  0.00000000       0.500
  -0.25000000  0.25000000  0.00000000       0.500
 
 position of ions in fractional coordinates (direct lattice) 
   0.22082994  0.99925743  0.50013412
   0.05213321  0.10086678  0.50016325
   0.10950624  0.00060596  0.50013902
   0.27498282  0.09916557  0.49997439
   0.21777515  0.19916748  0.49992264
   0.05196406  0.30085135  0.50007115
   0.10698207  0.20025621  0.50011550
   0.27239077  0.29788432  0.49956297
   0.21791727  0.39972677  0.49959657
   0.05536936  0.50163836  0.49991051
   0.10850136  0.40000517  0.49986736
   0.22551184  0.59526876  0.49963794
   0.05791728  0.70112500  0.49985140
   0.11408513  0.59996710  0.49978728
   0.28374816  0.69748225  0.49975752
   0.22409785  0.79794413  0.49993562
   0.05521938  0.90096218  0.49999531
   0.11264025  0.80038586  0.49990774
   0.27817581  0.89842787  0.50007081
   0.55342651  0.00163562  0.49991451
   0.38579564  0.10101865  0.49981621
   0.44290929  0.00016101  0.49996171
   0.60643094  0.10461538  0.49980517
   0.54939474  0.20620836  0.49963348
   0.43755044  0.20473080  0.49950765
   0.60479015  0.30941500  0.49989169
   0.55776188  0.79524787  0.50015456
   0.38929715  0.89777385  0.50004626
   0.44263763  0.79313823  0.49998816
   0.60937692  0.89978185  0.50004323
   0.88608588  0.00292184  0.49995519
   0.71799927  0.10561272  0.49991184
   0.77466440  0.00433707  0.49991935
   0.94074602  0.10277854  0.50008068
   0.88453301  0.20383585  0.50013432
   0.71762934  0.30936833  0.50021099
   0.77273873  0.20684957  0.50007596
   0.94118128  0.30275087  0.50016781
   0.88764241  0.40442283  0.50025217
   0.77633915  0.40943672  0.50044411
   0.94529082  0.50295711  0.50014287
   0.89132310  0.60447340  0.50018885
   0.72280891  0.70462357  0.50037557
   0.78190206  0.60406294  0.50049701
   0.94701944  0.70317782  0.49996592
   0.88968672  0.80294756  0.49996411
   0.72069946  0.90323787  0.50000566
   0.77834256  0.80362207  0.50010162
   0.94372385  0.90274815  0.49992905
   0.27570385  0.49496393  0.49947936
   0.37942724  0.29991682  0.49919126
   0.54918500  0.40248182  0.49987876
   0.39006805  0.69701663  0.49977595
   0.61563396  0.70052815  0.50039966
   0.72882144  0.50907777  0.50075550
   0.41982490  0.45166638  0.49913964
   0.58234990  0.54533848  0.50060307
 
 position of ions in cartesian coordinates  (Angst):
   2.95076489 12.28534450 10.04689120
   0.68887513  1.24453228 10.04271711
   1.41908741  0.01986714 10.04242095
   3.56248875  1.24557472 10.04102918
   2.83438297  2.46707886 10.03980040
   0.70593530  3.69854115 10.04157036
   1.40574689  2.46954212 10.04262752
   3.54817805  3.68381126 10.03344372
   2.85550924  4.92816995 10.03396119
   0.76916650  6.16274822 10.03908404
   1.44455573  4.92082540 10.03836296
   2.97226172  7.32842766 10.03555183
   0.82121749  8.61091436 10.03862332
   1.53580136  7.37512234 10.03751173
   3.73309081  8.58842552 10.03886365
   2.97353324  9.81533448 10.04222831
   0.80565700 11.06286671 10.04219044
   1.53645487  9.83433449 10.04062196
   3.68057162 11.05369739 10.04580806
   7.14380255  0.07616384 10.04211972
   4.99166296  1.27921263 10.03890891
   5.71847514  0.04719884 10.04201585
   7.83723387  1.34504921 10.04078878
   7.11149072  2.58609397 10.03715927
   5.66904723  2.55696173 10.03356882
   7.83578214  3.85799989 10.04323095
   7.27607534  9.81506723 10.04977329
   5.11348494 11.05660128 10.04636489
   5.79127359  9.77785588 10.04533522
   7.95173923 11.10288787 10.04839476
  11.43376978  0.12466653 10.04609029
   9.27607215  1.36826156 10.04399003
   9.99705835  0.13107380 10.04432076
  12.14825520  1.35539224 10.04947867
  11.43307917  2.58994546 10.05037908
   9.29091139  3.86852673 10.05070973
   9.99171385  2.61593113 10.04815969
  12.17311091  3.80931098 10.05193600
  11.49247910  5.05166974 10.05348061
  10.05764163  5.10224875 10.05629807
  12.24536961  6.26646111 10.05217875
  11.55919205  7.50686721 10.05294812
   9.39573917  8.71924374 10.05545408
  10.14810653  7.49106926 10.05809793
  12.28692430  8.72355406 10.04934712
  11.55718426  9.94219707 10.04911899
   9.38764245 11.15624615 10.04870652
  10.12140107  9.93952302 10.05082820
  12.26362809 11.17217245 10.04927795
   3.60986418  6.10251575 10.03249007
   4.92866813  3.71927875 10.02700135
   7.12767514  4.99456063 10.04277248
   5.10410529  8.59316921 10.04023858
   8.01325992  8.65844721 10.05490866
   9.45446401  6.32027895 10.06245077
   5.46422109  5.58538234 10.02688146
   7.56911219  6.75083004 10.05813139
 


--------------------------------------------------------------------------------------------------------


 k-point  1 :   0.2500 0.2500 0.0000  plane waves:   80655
 k-point  2 :  -0.2500 0.2500 0.0000  plane waves:   80671

 maximum and minimum number of plane-waves per node :      2556     2496

 maximum number of plane-waves:     80671
 maximum index in each direction: 
   IXMAX=   23   IYMAX=   22   IZMAX=   36
   IXMIN=  -23   IYMIN=  -22   IZMIN=  -36


 parallel 3D FFT for wavefunctions:
    minimum data exchange during FFTs selected (reduces bandwidth)
 parallel 3D FFT for charge:
    minimum data exchange during FFTs selected (reduces bandwidth)


 FFT grid for exact exchange (Hartree Fock) 
  NGX = 72; NGY = 70; NGZ =112

 
 Radii for the augmentation spheres in the non-local exchange
 for species   1 augmentation radius   0.874 (default was   0.699)
       energy cutoff for augmentation   2000.0
 for species   2 augmentation radius   0.886 (default was   0.709)
       energy cutoff for augmentation   2000.0
 for species   3 augmentation radius   1.263 (default was   1.010)
       energy cutoff for augmentation   2000.0
 for species   4 augmentation radius   1.179 (default was   0.943)
       energy cutoff for augmentation   2000.0

 real space projection operators:
  total allocation   :       2445.30 KBytes
  max/ min on nodes  :        105.30         50.49

 Maximum index for augmentation-charges in exchange          150
  SETUP_FOCK is finished

 total amount of memory used by VASP MPI-rank0   162104. kBytes
=======================================================================

   base      :      30000. kBytes
   nonl-proj :       5292. kBytes
   fftplans  :      13453. kBytes
   grid      :      34560. kBytes
   one-center:         62. kBytes
   HF        :         23. kBytes
   nonlr-proj:       1638. kBytes
   wavefun   :      77076. kBytes
 
     INWAV:  cpu time    3.5703: real time    3.5728
 Broyden mixing: mesh for mixing (old mesh)
   NGX = 47   NGY = 45   NGZ = 73
  (NGX  =192   NGY  =180   NGZ  =300)
  gives a total of 154395 points

 charge density for first step will be calculated from the start-wavefunctions


--------------------------------------------------------------------------------------------------------


 Maximum index for augmentation-charges          103 (set IRDMAX)


--------------------------------------------------------------------------------------------------------


 initial charge from wavefunction
 First call to EWALD:  gamma=   0.121
 Maximum number of real-space cells 3x 3x 2
 Maximum number of reciprocal cells 2x 2x 4

    FEWALD:  cpu time    0.0033: real time    0.0033


--------------------------------------- Iteration      1(   1)  ---------------------------------------


    POTLOK:  cpu time    1.3083: real time    1.3126
    SETDIJ:  cpu time    2.0806: real time    2.0816
    TRIAL :  cpu time  523.4975: real time  523.7605
    CORREC:  cpu time    0.0022: real time    0.0025
    CHARGE:  cpu time    1.6667: real time    1.6673
    --------------------------------------------
      LOOP:  cpu time  528.5714: real time  528.8431

 eigenvalue-minimisations  :     0
 total energy-change (2. order) :-0.5908624E+03  (-0.4510668E+00)
 number of electron     245.0000003 magnetization       2.6137107
 augmentation part       17.1458119 magnetization       1.7768997

 DIPCOR: dipole corrections for dipol
 direction  3 min pos     1,
 dipolmoment           0.000003      0.000001      0.004540 electrons x Angstroem
 Tr[quadrupol]     -6550.343759

 energy correction for charged system         0.000000 eV
 dipol+quadrupol energy correction            0.000001 eV
 added-field ion interaction          0.000000 eV  (added to PSCEN)


 Free energy of the ion-electron system (eV)
  ---------------------------------------------------
  alpha Z        PSCENC =        99.36633275
  Ewald energy   TEWEN  =     39902.01543185
  -Hartree energ DENC   =    -49139.40727124
  -exchange      EXHF   =       564.30542429
  -V(xc)+E(xc)   XCENC  =       647.25768875
  PAW double counting   =     26715.17062229   -26853.04535772
  entropy T*S    EENTRO =        -0.04270759
  eigenvalues    EBANDS =     -3199.56587110
  atomic energy  EATOM  =     10673.08789870
  ---------------------------------------------------
  free energy    TOTEN  =      -590.86243512 eV

  energy without entropy =     -590.81972753  energy(sigma->0) =     -590.84108132
  exchange ACFDT corr.  =        -0.08867905  see jH, gK, PRB 81, 115126


--------------------------------------------------------------------------------------------------------




--------------------------------------- Iteration      1(   2)  ---------------------------------------


    POTLOK:  cpu time    1.3175: real time    1.3181
    SETDIJ:  cpu time    2.0836: real time    2.0839
    TRIAL :  cpu time  525.3381: real time  525.6120
    CORREC:  cpu time    0.0023: real time    0.0026
    CHARGE:  cpu time    1.6571: real time    1.6576
    --------------------------------------------
      LOOP:  cpu time  530.4012: real time  530.6781

 eigenvalue-minimisations  :     0
 total energy-change (2. order) :-0.3486422E+00  (-0.3825091E+00)
 number of electron     245.0000003 magnetization       2.6197861
 augmentation part       17.1014497 magnetization       1.8120819

 DIPCOR: dipole corrections for dipol
 direction  3 min pos     1,
 dipolmoment           0.000004      0.000001      0.005301 electrons x Angstroem
 Tr[quadrupol]     -6550.203028

 energy correction for charged system         0.000000 eV
 dipol+quadrupol energy correction            0.000001 eV
 added-field ion interaction          0.000000 eV  (added to PSCEN)


 Free energy of the ion-electron system (eV)
  ---------------------------------------------------
  alpha Z        PSCENC =        99.36633297
  Ewald energy   TEWEN  =     39902.01543185
  -Hartree energ DENC   =    -49133.05348876
  -exchange      EXHF   =       564.28656896
  -V(xc)+E(xc)   XCENC  =       647.05506497
  PAW double counting   =     26843.41497773   -26982.91921127
  entropy T*S    EENTRO =        -0.03697422
  eigenvalues    EBANDS =     -3204.42194487
  atomic energy  EATOM  =     10673.08789870
  ---------------------------------------------------
  free energy    TOTEN  =      -591.21107732 eV

  energy without entropy =     -591.17410309  energy(sigma->0) =     -591.19259021
  exchange ACFDT corr.  =        -0.06264444  see jH, gK, PRB 81, 115126


--------------------------------------------------------------------------------------------------------




--------------------------------------- Iteration      1(   3)  ---------------------------------------


    POTLOK:  cpu time    1.3215: real time    1.3223
    SETDIJ:  cpu time    2.0844: real time    2.0847
    TRIAL :  cpu time  525.1162: real time  525.1853
    CORREC:  cpu time    0.0023: real time    0.0025
    CHARGE:  cpu time    1.6577: real time    1.6578
    --------------------------------------------
      LOOP:  cpu time  530.1844: real time  530.2549

 eigenvalue-minimisations  :     0
 total energy-change (2. order) :-0.2946664E+00  (-0.2210970E+00)
 number of electron     245.0000003 magnetization       2.6477636
 augmentation part       17.0681211 magnetization       1.8495153

 DIPCOR: dipole corrections for dipol
 direction  3 min pos     1,
 dipolmoment           0.000004      0.000001      0.005956 electrons x Angstroem
 Tr[quadrupol]     -6550.024854

 energy correction for charged system         0.000000 eV
 dipol+quadrupol energy correction            0.000001 eV
 added-field ion interaction          0.000000 eV  (added to PSCEN)


 Free energy of the ion-electron system (eV)
  ---------------------------------------------------
  alpha Z        PSCENC =        99.36633318
  Ewald energy   TEWEN  =     39902.01543185
  -Hartree energ DENC   =    -49116.23760473
  -exchange      EXHF   =       564.16453929
  -V(xc)+E(xc)   XCENC  =       646.62805459
  PAW double counting   =     26997.75737485   -27136.12803593
  entropy T*S    EENTRO =        -0.03202152
  eigenvalues    EBANDS =     -3222.12276133
  atomic energy  EATOM  =     10673.08789870
  ---------------------------------------------------
  free energy    TOTEN  =      -591.50574376 eV

  energy without entropy =     -591.47372224  energy(sigma->0) =     -591.48973300
  exchange ACFDT corr.  =        -0.04133263  see jH, gK, PRB 81, 115126


--------------------------------------------------------------------------------------------------------




--------------------------------------- Iteration      1(   4)  ---------------------------------------


    POTLOK:  cpu time    1.3254: real time    1.3255
    SETDIJ:  cpu time    2.0835: real time    2.0836
    TRIAL :  cpu time  526.5087: real time  526.7324
    CORREC:  cpu time    0.0023: real time    0.0025
    CHARGE:  cpu time    1.6547: real time    1.6552
    --------------------------------------------
      LOOP:  cpu time  531.5766: real time  531.8013

 eigenvalue-minimisations  :     0
 total energy-change (2. order) :-0.1625004E+00  (-0.1331149E+00)
 number of electron     245.0000003 magnetization       2.6881060
 augmentation part       17.0896707 magnetization       1.8811001

 DIPCOR: dipole corrections for dipol
 direction  3 min pos     1,
 dipolmoment           0.000004      0.000001      0.006025 electrons x Angstroem
 Tr[quadrupol]     -6549.944933

 energy correction for charged system         0.000000 eV
 dipol+quadrupol energy correction            0.000001 eV
 added-field ion interaction          0.000000 eV  (added to PSCEN)


 Free energy of the ion-electron system (eV)
  ---------------------------------------------------
  alpha Z        PSCENC =        99.36633320
  Ewald energy   TEWEN  =     39902.01543185
  -Hartree energ DENC   =    -49106.49157210
  -exchange      EXHF   =       564.22304560
  -V(xc)+E(xc)   XCENC  =       646.40714300
  PAW double counting   =     27132.31708839   -27269.57894723
  entropy T*S    EENTRO =        -0.02839787
  eigenvalues    EBANDS =     -3232.98264410
  atomic energy  EATOM  =     10673.08789870
  ---------------------------------------------------
  free energy    TOTEN  =      -591.66824421 eV

  energy without entropy =     -591.63984634  energy(sigma->0) =     -591.65404528
  exchange ACFDT corr.  =        -0.03029756  see jH, gK, PRB 81, 115126


--------------------------------------------------------------------------------------------------------




--------------------------------------- Iteration      1(   5)  ---------------------------------------


    POTLOK:  cpu time    1.3194: real time    1.3201
    SETDIJ:  cpu time    2.0817: real time    2.0821
    TRIAL :  cpu time  526.5507: real time  526.6347
    CORREC:  cpu time    0.0023: real time    0.0025
    CHARGE:  cpu time    1.6547: real time    1.6548
    --------------------------------------------
      LOOP:  cpu time  531.6113: real time  531.6967

 eigenvalue-minimisations  :     0
 total energy-change (2. order) :-0.1040346E+00  (-0.8230906E-01)
 number of electron     245.0000002 magnetization       2.7348532
 augmentation part       17.1048882 magnetization       1.9066878

 DIPCOR: dipole corrections for dipol
 direction  3 min pos     1,
 dipolmoment           0.000004      0.000001      0.005834 electrons x Angstroem
 Tr[quadrupol]     -6549.973685

 energy correction for charged system         0.000000 eV
 dipol+quadrupol energy correction            0.000001 eV
 added-field ion interaction          0.000000 eV  (added to PSCEN)


 Free energy of the ion-electron system (eV)
  ---------------------------------------------------
  alpha Z        PSCENC =        99.36633314
  Ewald energy   TEWEN  =     39902.01543185
  -Hartree energ DENC   =    -49109.40442828
  -exchange      EXHF   =       564.52805105
  -V(xc)+E(xc)   XCENC  =       646.53117009
  PAW double counting   =     27233.60614485   -27371.53833879
  entropy T*S    EENTRO =        -0.02530529
  eigenvalues    EBANDS =     -3229.93614353
  atomic energy  EATOM  =     10673.08789870
  ---------------------------------------------------
  free energy    TOTEN  =      -591.77227879 eV

  energy without entropy =     -591.74697351  energy(sigma->0) =     -591.75962615
  exchange ACFDT corr.  =        -0.02512590  see jH, gK, PRB 81, 115126


--------------------------------------------------------------------------------------------------------




--------------------------------------- Iteration      1(   6)  ---------------------------------------


    POTLOK:  cpu time    1.3189: real time    1.3190
    SETDIJ:  cpu time    2.0828: real time    2.0830
    TRIAL :  cpu time  525.4102: real time  525.4779
    CORREC:  cpu time    0.0021: real time    0.0024
    CHARGE:  cpu time    1.6554: real time    1.6556
    --------------------------------------------
      LOOP:  cpu time  530.4718: real time  530.5401

 eigenvalue-minimisations  :     0
 total energy-change (2. order) :-0.6809008E-01  (-0.6058130E-01)
 number of electron     245.0000002 magnetization       2.7817414
 augmentation part       17.0995635 magnetization       1.9277209

 DIPCOR: dipole corrections for dipol
 direction  3 min pos     1,
 dipolmoment           0.000004      0.000001      0.005623 electrons x Angstroem
 Tr[quadrupol]     -6550.029206

 energy correction for charged system         0.000000 eV
 dipol+quadrupol energy correction            0.000001 eV
 added-field ion interaction          0.000000 eV  (added to PSCEN)


 Free energy of the ion-electron system (eV)
  ---------------------------------------------------
  alpha Z        PSCENC =        99.36633307
  Ewald energy   TEWEN  =     39902.01543185
  -Hartree energ DENC   =    -49113.88781320
  -exchange      EXHF   =       564.82899701
  -V(xc)+E(xc)   XCENC  =       646.69886196
  PAW double counting   =     27299.26501952   -27437.56538428
  entropy T*S    EENTRO =        -0.02228305
  eigenvalues    EBANDS =     -3225.62440821
  atomic energy  EATOM  =     10673.08789870
  ---------------------------------------------------
  free energy    TOTEN  =      -591.84036887 eV

  energy without entropy =     -591.81808582  energy(sigma->0) =     -591.82922735
  exchange ACFDT corr.  =        -0.02146443  see jH, gK, PRB 81, 115126


--------------------------------------------------------------------------------------------------------




--------------------------------------- Iteration      1(   7)  ---------------------------------------


    POTLOK:  cpu time    1.3173: real time    1.3175
    SETDIJ:  cpu time    2.0840: real time    2.0841
    TRIAL :  cpu time  526.4193: real time  526.5565
    CORREC:  cpu time    0.0023: real time    0.0025
    CHARGE:  cpu time    1.6585: real time    1.6587
    --------------------------------------------
      LOOP:  cpu time  531.4836: real time  531.6213

 eigenvalue-minimisations  :     0
 total energy-change (2. order) :-0.5104606E-01  (-0.4301935E-01)
 number of electron     245.0000002 magnetization       2.8238009
 augmentation part       17.1013542 magnetization       1.9454952

 DIPCOR: dipole corrections for dipol
 direction  3 min pos     1,
 dipolmoment           0.000004      0.000001      0.005486 electrons x Angstroem
 Tr[quadrupol]     -6550.069315

 energy correction for charged system         0.000000 eV
 dipol+quadrupol energy correction            0.000001 eV
 added-field ion interaction          0.000000 eV  (added to PSCEN)


 Free energy of the ion-electron system (eV)
  ---------------------------------------------------
  alpha Z        PSCENC =        99.36633303
  Ewald energy   TEWEN  =     39902.01543185
  -Hartree energ DENC   =    -49115.74021559
  -exchange      EXHF   =       565.03132067
  -V(xc)+E(xc)   XCENC  =       646.79368401
  PAW double counting   =     27337.19362506   -27475.14333895
  entropy T*S    EENTRO =        -0.01933618
  eigenvalues    EBANDS =     -3224.47387064
  atomic energy  EATOM  =     10673.08789870
  ---------------------------------------------------
  free energy    TOTEN  =      -591.89141493 eV

  energy without entropy =     -591.87207875  energy(sigma->0) =     -591.88174684
  exchange ACFDT corr.  =        -0.01809664  see jH, gK, PRB 81, 115126


--------------------------------------------------------------------------------------------------------




--------------------------------------- Iteration      1(   8)  ---------------------------------------


    POTLOK:  cpu time    1.3156: real time    1.3157
    SETDIJ:  cpu time    2.0818: real time    2.0819
    TRIAL :  cpu time  525.6485: real time  525.7171
    CORREC:  cpu time    0.0022: real time    0.0024
    CHARGE:  cpu time    1.6565: real time    1.6567
    --------------------------------------------
      LOOP:  cpu time  530.7068: real time  530.7759

 eigenvalue-minimisations  :     0
 total energy-change (2. order) :-0.3804094E-01  (-0.3367755E-01)
 number of electron     245.0000002 magnetization       2.8596410
 augmentation part       17.1084616 magnetization       1.9614944

 DIPCOR: dipole corrections for dipol
 direction  3 min pos     1,
 dipolmoment           0.000004      0.000001      0.005453 electrons x Angstroem
 Tr[quadrupol]     -6550.094526

 energy correction for charged system         0.000000 eV
 dipol+quadrupol energy correction            0.000001 eV
 added-field ion interaction          0.000000 eV  (added to PSCEN)


 Free energy of the ion-electron system (eV)
  ---------------------------------------------------
  alpha Z        PSCENC =        99.36633302
  Ewald energy   TEWEN  =     39902.01543185
  -Hartree energ DENC   =    -49117.51957501
  -exchange      EXHF   =       565.19017761
  -V(xc)+E(xc)   XCENC  =       646.88322961
  PAW double counting   =     27358.50373991   -27496.45622298
  entropy T*S    EENTRO =        -0.01653685
  eigenvalues    EBANDS =     -3222.98113239
  atomic energy  EATOM  =     10673.08789870
  ---------------------------------------------------
  free energy    TOTEN  =      -591.92945587 eV

  energy without entropy =     -591.91291902  energy(sigma->0) =     -591.92118745
  exchange ACFDT corr.  =        -0.01497912  see jH, gK, PRB 81, 115126


--------------------------------------------------------------------------------------------------------




--------------------------------------- Iteration      1(   9)  ---------------------------------------


    POTLOK:  cpu time    1.3137: real time    1.3137
    SETDIJ:  cpu time    2.0828: real time    2.0849
    TRIAL :  cpu time  526.0875: real time  526.2064
    CORREC:  cpu time    0.0022: real time    0.0022
    CHARGE:  cpu time    1.6632: real time    1.6638
    --------------------------------------------
      LOOP:  cpu time  531.1514: real time  531.2730

 eigenvalue-minimisations  :     0
 total energy-change (2. order) :-0.3014383E-01  (-0.2669453E-01)
 number of electron     245.0000002 magnetization       2.8899945
 augmentation part       17.1108292 magnetization       1.9766329

 DIPCOR: dipole corrections for dipol
 direction  3 min pos     1,
 dipolmoment           0.000004      0.000001      0.005431 electrons x Angstroem
 Tr[quadrupol]     -6550.106904

 energy correction for charged system         0.000000 eV
 dipol+quadrupol energy correction            0.000001 eV
 added-field ion interaction          0.000000 eV  (added to PSCEN)


 Free energy of the ion-electron system (eV)
  ---------------------------------------------------
  alpha Z        PSCENC =        99.36633301
  Ewald energy   TEWEN  =     39902.01543185
  -Hartree energ DENC   =    -49118.91834654
  -exchange      EXHF   =       565.30764975
  -V(xc)+E(xc)   XCENC  =       646.95728854
  PAW double counting   =     27370.18916518   -27508.37097734
  entropy T*S    EENTRO =        -0.01389191
  eigenvalues    EBANDS =     -3221.57750600
  atomic energy  EATOM  =     10673.08789870
  ---------------------------------------------------
  free energy    TOTEN  =      -591.95959970 eV

  energy without entropy =     -591.94570779  energy(sigma->0) =     -591.95265375
  exchange ACFDT corr.  =        -0.01219222  see jH, gK, PRB 81, 115126


--------------------------------------------------------------------------------------------------------




--------------------------------------- Iteration      1(  10)  ---------------------------------------


    POTLOK:  cpu time    1.3142: real time    1.3147
    SETDIJ:  cpu time    2.0847: real time    2.0852
    TRIAL :  cpu time  525.8060: real time  526.0759
    CORREC:  cpu time    0.0023: real time    0.0025
    CHARGE:  cpu time    1.6536: real time    1.6541
    --------------------------------------------
      LOOP:  cpu time  530.8627: real time  531.1343

 eigenvalue-minimisations  :     0
 total energy-change (2. order) :-0.2442807E-01  (-0.2205826E-01)
 number of electron     245.0000002 magnetization       2.9154373
 augmentation part       17.1095530 magnetization       1.9909335

 DIPCOR: dipole corrections for dipol
 direction  3 min pos     1,
 dipolmoment           0.000004      0.000001      0.005371 electrons x Angstroem
 Tr[quadrupol]     -6550.108898

 energy correction for charged system         0.000000 eV
 dipol+quadrupol energy correction            0.000001 eV
 added-field ion interaction          0.000000 eV  (added to PSCEN)


 Free energy of the ion-electron system (eV)
  ---------------------------------------------------
  alpha Z        PSCENC =        99.36633299
  Ewald energy   TEWEN  =     39902.01543185
  -Hartree energ DENC   =    -49119.06112096
  -exchange      EXHF   =       565.37788105
  -V(xc)+E(xc)   XCENC  =       646.99313076
  PAW double counting   =     27376.08305179   -27514.32231635
  entropy T*S    EENTRO =        -0.01142869
  eigenvalues    EBANDS =     -3221.51042570
  atomic energy  EATOM  =     10673.08789870
  ---------------------------------------------------
  free energy    TOTEN  =      -591.98402778 eV

  energy without entropy =     -591.97259909  energy(sigma->0) =     -591.97831343
  exchange ACFDT corr.  =        -0.00972906  see jH, gK, PRB 81, 115126


--------------------------------------------------------------------------------------------------------




--------------------------------------- Iteration      1(  11)  ---------------------------------------


    POTLOK:  cpu time    1.3179: real time    1.3186
    SETDIJ:  cpu time    2.0796: real time    2.0799
    TRIAL :  cpu time  525.2431: real time  525.4990
    CORREC:  cpu time    0.0021: real time    0.0024
    CHARGE:  cpu time    1.6525: real time    1.6531
    --------------------------------------------
      LOOP:  cpu time  530.2974: real time  530.5552

 eigenvalue-minimisations  :     0
 total energy-change (2. order) :-0.2029361E-01  (-0.1829862E-01)
 number of electron     245.0000002 magnetization       2.9360087
 augmentation part       17.1103584 magnetization       2.0038965

 DIPCOR: dipole corrections for dipol
 direction  3 min pos     1,
 dipolmoment           0.000004      0.000001      0.005298 electrons x Angstroem
 Tr[quadrupol]     -6550.106976

 energy correction for charged system         0.000000 eV
 dipol+quadrupol energy correction            0.000001 eV
 added-field ion interaction          0.000000 eV  (added to PSCEN)


 Free energy of the ion-electron system (eV)
  ---------------------------------------------------
  alpha Z        PSCENC =        99.36633297
  Ewald energy   TEWEN  =     39902.01543185
  -Hartree energ DENC   =    -49118.58369888
  -exchange      EXHF   =       565.42390742
  -V(xc)+E(xc)   XCENC  =       647.00988370
  PAW double counting   =     27378.92874014   -27517.11000079
  entropy T*S    EENTRO =        -0.00922974
  eigenvalues    EBANDS =     -3222.13138780
  atomic energy  EATOM  =     10673.08789870
  ---------------------------------------------------
  free energy    TOTEN  =      -592.00432139 eV

  energy without entropy =     -591.99509165  energy(sigma->0) =     -591.99970652
  exchange ACFDT corr.  =        -0.00758902  see jH, gK, PRB 81, 115126


--------------------------------------------------------------------------------------------------------




--------------------------------------- Iteration      1(  12)  ---------------------------------------


    POTLOK:  cpu time    1.3113: real time    1.3119
    SETDIJ:  cpu time    2.0703: real time    2.0707
    TRIAL :  cpu time  525.6631: real time  525.9268
    CORREC:  cpu time    0.0018: real time    0.0021
    CHARGE:  cpu time    1.6564: real time    1.6571
    --------------------------------------------
      LOOP:  cpu time  530.7050: real time  530.9706

 eigenvalue-minimisations  :     0
 total energy-change (2. order) :-0.1703581E-01  (-0.1542114E-01)
 number of electron     245.0000002 magnetization       2.9519139
 augmentation part       17.1119338 magnetization       2.0153573

 DIPCOR: dipole corrections for dipol
 direction  3 min pos     1,
 dipolmoment           0.000004      0.000001      0.005249 electrons x Angstroem
 Tr[quadrupol]     -6550.106697

 energy correction for charged system         0.000000 eV
 dipol+quadrupol energy correction            0.000001 eV
 added-field ion interaction          0.000000 eV  (added to PSCEN)


 Free energy of the ion-electron system (eV)
  ---------------------------------------------------
  alpha Z        PSCENC =        99.36633295
  Ewald energy   TEWEN  =     39902.01543185
  -Hartree energ DENC   =    -49118.47123621
  -exchange      EXHF   =       565.47055773
  -V(xc)+E(xc)   XCENC  =       647.03480352
  PAW double counting   =     27380.68164559   -27518.90649904
  entropy T*S    EENTRO =        -0.00736850
  eigenvalues    EBANDS =     -3222.29106255
  atomic energy  EATOM  =     10673.08789870
  ---------------------------------------------------
  free energy    TOTEN  =      -592.02135720 eV

  energy without entropy =     -592.01398870  energy(sigma->0) =     -592.01767295
  exchange ACFDT corr.  =        -0.00580922  see jH, gK, PRB 81, 115126


--------------------------------------------------------------------------------------------------------




--------------------------------------- Iteration      1(  13)  ---------------------------------------


    POTLOK:  cpu time    1.3066: real time    1.3071
    SETDIJ:  cpu time    2.0749: real time    2.0753
    TRIAL :  cpu time  525.5025: real time  525.6381
    CORREC:  cpu time    0.0022: real time    0.0025
    CHARGE:  cpu time    1.6617: real time    1.6620
    --------------------------------------------
      LOOP:  cpu time  530.5504: real time  530.6874

 eigenvalue-minimisations  :     0
 total energy-change (2. order) :-0.1444237E-01  (-0.1312592E-01)
 number of electron     245.0000002 magnetization       2.9638192
 augmentation part       17.1125459 magnetization       2.0253749

 DIPCOR: dipole corrections for dipol
 direction  3 min pos     1,
 dipolmoment           0.000004      0.000001      0.005216 electrons x Angstroem
 Tr[quadrupol]     -6550.107493

 energy correction for charged system         0.000000 eV
 dipol+quadrupol energy correction            0.000001 eV
 added-field ion interaction          0.000000 eV  (added to PSCEN)


 Free energy of the ion-electron system (eV)
  ---------------------------------------------------
  alpha Z        PSCENC =        99.36633294
  Ewald energy   TEWEN  =     39902.01543185
  -Hartree energ DENC   =    -49118.52074682
  -exchange      EXHF   =       565.51455498
  -V(xc)+E(xc)   XCENC  =       647.06162691
  PAW double counting   =     27382.18567660   -27520.48110342
  entropy T*S    EENTRO =        -0.00585841
  eigenvalues    EBANDS =     -3222.25810281
  atomic energy  EATOM  =     10673.08789870
  ---------------------------------------------------
  free energy    TOTEN  =      -592.03579957 eV

  energy without entropy =     -592.02994115  energy(sigma->0) =     -592.03287036
  exchange ACFDT corr.  =        -0.00440542  see jH, gK, PRB 81, 115126


--------------------------------------------------------------------------------------------------------




--------------------------------------- Iteration      1(  14)  ---------------------------------------


    POTLOK:  cpu time    1.3063: real time    1.3064
    SETDIJ:  cpu time    2.0773: real time    2.0774
    TRIAL :  cpu time  525.0796: real time  525.1498
    CORREC:  cpu time    0.0019: real time    0.0022
    CHARGE:  cpu time    1.6574: real time    1.6575
    --------------------------------------------
      LOOP:  cpu time  530.1245: real time  530.1954

 eigenvalue-minimisations  :     0
 total energy-change (2. order) :-0.1238160E-01  (-0.1128919E-01)
 number of electron     245.0000002 magnetization       2.9725745
 augmentation part       17.1127688 magnetization       2.0341119

 DIPCOR: dipole corrections for dipol
 direction  3 min pos     1,
 dipolmoment           0.000004      0.000001      0.005186 electrons x Angstroem
 Tr[quadrupol]     -6550.108041

 energy correction for charged system         0.000000 eV
 dipol+quadrupol energy correction            0.000001 eV
 added-field ion interaction          0.000000 eV  (added to PSCEN)


 Free energy of the ion-electron system (eV)
  ---------------------------------------------------
  alpha Z        PSCENC =        99.36633293
  Ewald energy   TEWEN  =     39902.01543185
  -Hartree energ DENC   =    -49118.45035682
  -exchange      EXHF   =       565.55077303
  -V(xc)+E(xc)   XCENC  =       647.08252083
  PAW double counting   =     27383.78759374   -27522.10503549
  entropy T*S    EENTRO =        -0.00466667
  eigenvalues    EBANDS =     -3222.37748152
  atomic energy  EATOM  =     10673.08789870
  ---------------------------------------------------
  free energy    TOTEN  =      -592.04818116 eV

  energy without entropy =     -592.04351450  energy(sigma->0) =     -592.04584783
  exchange ACFDT corr.  =        -0.00334110  see jH, gK, PRB 81, 115126


--------------------------------------------------------------------------------------------------------




--------------------------------------- Iteration      1(  15)  ---------------------------------------


    POTLOK:  cpu time    1.3065: real time    1.3067
    SETDIJ:  cpu time    2.0775: real time    2.0776
    TRIAL :  cpu time  525.3332: real time  525.3946
    CORREC:  cpu time    0.0022: real time    0.0024
    CHARGE:  cpu time    1.6543: real time    1.6544
    --------------------------------------------
      LOOP:  cpu time  530.3759: real time  530.4380

 eigenvalue-minimisations  :     0
 total energy-change (2. order) :-0.1069494E-01  (-0.9770705E-02)
 number of electron     245.0000002 magnetization       2.9789490
 augmentation part       17.1133566 magnetization       2.0417897

 DIPCOR: dipole corrections for dipol
 direction  3 min pos     1,
 dipolmoment           0.000004      0.000001      0.005162 electrons x Angstroem
 Tr[quadrupol]     -6550.108441

 energy correction for charged system         0.000000 eV
 dipol+quadrupol energy correction            0.000001 eV
 added-field ion interaction          0.000000 eV  (added to PSCEN)


 Free energy of the ion-electron system (eV)
  ---------------------------------------------------
  alpha Z        PSCENC =        99.36633293
  Ewald energy   TEWEN  =     39902.01543185
  -Hartree energ DENC   =    -49118.34232393
  -exchange      EXHF   =       565.58209531
  -V(xc)+E(xc)   XCENC  =       647.10026801
  PAW double counting   =     27385.65019135   -27523.97228018
  entropy T*S    EENTRO =        -0.00374423
  eigenvalues    EBANDS =     -3222.54182347
  atomic energy  EATOM  =     10673.08789870
  ---------------------------------------------------
  free energy    TOTEN  =      -592.05887610 eV

  energy without entropy =     -592.05513187  energy(sigma->0) =     -592.05700399
  exchange ACFDT corr.  =        -0.00255233  see jH, gK, PRB 81, 115126


--------------------------------------------------------------------------------------------------------




--------------------------------------- Iteration      1(  16)  ---------------------------------------


    POTLOK:  cpu time    1.3053: real time    1.3055
    SETDIJ:  cpu time    2.0764: real time    2.0765
    TRIAL :  cpu time  524.9873: real time  525.0238
    CORREC:  cpu time    0.0022: real time    0.0025
    CHARGE:  cpu time    1.6592: real time    1.6592
    --------------------------------------------
      LOOP:  cpu time  530.0331: real time  530.0702

 eigenvalue-minimisations  :     0
 total energy-change (2. order) :-0.9299276E-02  (-0.8516589E-02)
 number of electron     245.0000002 magnetization       2.9835621
 augmentation part       17.1139391 magnetization       2.0485540

 DIPCOR: dipole corrections for dipol
 direction  3 min pos     1,
 dipolmoment           0.000004      0.000001      0.005145 electrons x Angstroem
 Tr[quadrupol]     -6550.109033

 energy correction for charged system         0.000000 eV
 dipol+quadrupol energy correction            0.000001 eV
 added-field ion interaction          0.000000 eV  (added to PSCEN)


 Free energy of the ion-electron system (eV)
  ---------------------------------------------------
  alpha Z        PSCENC =        99.36633292
  Ewald energy   TEWEN  =     39902.01543185
  -Hartree energ DENC   =    -49118.31201327
  -exchange      EXHF   =       565.61191997
  -V(xc)+E(xc)   XCENC  =       647.11858340
  PAW double counting   =     27387.70846498   -27526.05457861
  entropy T*S    EENTRO =        -0.00304063
  eigenvalues    EBANDS =     -3222.60647108
  atomic energy  EATOM  =     10673.08789870
  ---------------------------------------------------
  free energy    TOTEN  =      -592.06817538 eV

  energy without entropy =     -592.06513475  energy(sigma->0) =     -592.06665506
  exchange ACFDT corr.  =        -0.00252314  see jH, gK, PRB 81, 115126


--------------------------------------------------------------------------------------------------------




--------------------------------------- Iteration      1(  17)  ---------------------------------------


    POTLOK:  cpu time    1.3044: real time    1.3045
    SETDIJ:  cpu time    2.0720: real time    2.0721
    TRIAL :  cpu time  525.0034: real time  525.0372
    CORREC:  cpu time    0.0022: real time    0.0024
    CHARGE:  cpu time    1.6551: real time    1.6551
    --------------------------------------------
      LOOP:  cpu time  530.0392: real time  530.0734

 eigenvalue-minimisations  :     0
 total energy-change (2. order) :-0.8134320E-02  (-0.7465950E-02)
 number of electron     245.0000002 magnetization       2.9868979
 augmentation part       17.1142138 magnetization       2.0545219

 DIPCOR: dipole corrections for dipol
 direction  3 min pos     1,
 dipolmoment           0.000004      0.000001      0.005132 electrons x Angstroem
 Tr[quadrupol]     -6550.109524

 energy correction for charged system         0.000000 eV
 dipol+quadrupol energy correction            0.000001 eV
 added-field ion interaction          0.000000 eV  (added to PSCEN)


 Free energy of the ion-electron system (eV)
  ---------------------------------------------------
  alpha Z        PSCENC =        99.36633292
  Ewald energy   TEWEN  =     39902.01543185
  -Hartree energ DENC   =    -49118.29972998
  -exchange      EXHF   =       565.63953410
  -V(xc)+E(xc)   XCENC  =       647.13611895
  PAW double counting   =     27389.74279427   -27528.11653018
  entropy T*S    EENTRO =        -0.00250859
  eigenvalues    EBANDS =     -3222.64511969
  atomic energy  EATOM  =     10673.08789870
  ---------------------------------------------------
  free energy    TOTEN  =      -592.07630970 eV

  energy without entropy =     -592.07380110  energy(sigma->0) =     -592.07505540
  exchange ACFDT corr.  =        -0.00190742  see jH, gK, PRB 81, 115126


--------------------------------------------------------------------------------------------------------




--------------------------------------- Iteration      1(  18)  ---------------------------------------


    POTLOK:  cpu time    1.3036: real time    1.3037
    SETDIJ:  cpu time    2.0731: real time    2.0732
    TRIAL :  cpu time  525.5094: real time  525.5431
    CORREC:  cpu time    0.0021: real time    0.0024
    CHARGE:  cpu time    1.6531: real time    1.6532
    --------------------------------------------
      LOOP:  cpu time  530.5433: real time  530.5776

 eigenvalue-minimisations  :     0
 total energy-change (2. order) :-0.7154946E-02  (-0.6583097E-02)
 number of electron     245.0000002 magnetization       2.9893231
 augmentation part       17.1143493 magnetization       2.0598322

 DIPCOR: dipole corrections for dipol
 direction  3 min pos     1,
 dipolmoment           0.000004      0.000001      0.005118 electrons x Angstroem
 Tr[quadrupol]     -6550.109688

 energy correction for charged system         0.000000 eV
 dipol+quadrupol energy correction            0.000001 eV
 added-field ion interaction          0.000000 eV  (added to PSCEN)


 Free energy of the ion-electron system (eV)
  ---------------------------------------------------
  alpha Z        PSCENC =        99.36633291
  Ewald energy   TEWEN  =     39902.01543185
  -Hartree energ DENC   =    -49118.24920989
  -exchange      EXHF   =       565.66404750
  -V(xc)+E(xc)   XCENC  =       647.15147592
  PAW double counting   =     27391.59480563   -27529.98439655
  entropy T*S    EENTRO =        -0.00210704
  eigenvalues    EBANDS =     -3222.72734212
[...]
  E(xc)    -729.14506  -728.96690  -743.43304    -0.23692    -0.03596     0.00138
  Local  -99588.93589-99619.35332101760.31262  -117.71294   -58.88520  -148.98917
  n-local   -86.78285   -92.12852   -80.68554    -0.32495     0.16450     0.05382
  augment   102.02309   103.21458   113.28865     1.13639     0.27461    -0.06397
  Kinetic  3622.23243  3623.72462  4146.42112    10.33327     0.30943    -0.19782
  Fock     -406.13273  -406.50972  -391.95420    -1.33521    -0.19042     0.09090
  -------------------------------------------------------------------------------------
  Total     -43.71168   -41.40285    -0.40420    -0.16129    -0.01276    -0.01233
  in kB     -22.04485   -20.88046    -0.20385    -0.08134    -0.00643    -0.00622
  external pressure =      -14.38 kB  Pullay stress =        0.00 kB


 VOLUME and BASIS-vectors are now :
 -----------------------------------------------------------------------------
  energy-cutoff  :      500.00
  volume of cell :     3176.88
      direct lattice vectors                 reciprocal lattice vectors
    12.895602122  0.098356531  0.009467094     0.077550494 -0.000608081 -0.000053035
     0.096221176 12.271075892  0.003519412    -0.000621582  0.081497325 -0.000013052
     0.013756481  0.003320413 20.077182002    -0.000036459 -0.000013999  0.049807814

  length of vectors
    12.895980681 12.271453641 20.077186990     0.077552896  0.081499696  0.049807829


 FORCES acting on ions:
    Electron-Ion                     Ewald-Force                    Non-Local-Force
 -----------------------------------------------------------------------------------------------
   0.277E+01 0.694E+01 -.124E+01   -.310E+01 -.692E+01 0.125E+01   0.371E+00 0.554E-01 -.116E-01
   0.542E+01 0.606E+01 -.107E+01   -.548E+01 -.626E+01 0.108E+01   0.744E-01 0.143E+00 -.546E-02
   -.228E+01 0.103E+01 -.100E+01   0.211E+01 -.107E+01 0.100E+01   0.330E-01 0.170E-01 -.264E-02
   0.117E+01 0.135E+02 -.479E+00   -.136E+01 -.139E+02 0.472E+00   0.975E-01 0.392E+00 0.481E-02
   0.139E+02 0.153E+02 -.439E+00   -.144E+02 -.155E+02 0.443E+00   0.480E+00 0.292E+00 -.642E-02
   0.608E+01 0.331E+01 -.590E+00   -.624E+01 -.372E+01 0.587E+00   0.194E+00 0.365E+00 -.262E-03
   0.331E+01 0.838E+01 -.112E+01   -.370E+01 -.846E+01 0.112E+01   0.383E+00 0.784E-01 -.841E-02
   0.370E+02 0.147E+02 0.121E+01   -.407E+02 -.150E+02 -.119E+01   0.352E+01 0.285E+00 -.189E-01
   0.271E+02 0.136E+02 0.125E+01   -.289E+02 -.164E+02 -.125E+01   0.196E+01 0.263E+01 0.149E-02
   0.126E+01 -.786E+01 0.313E+00   -.150E+01 0.799E+01 -.318E+00   0.603E-01 -.279E+00 0.577E-02
   0.118E+02 0.660E+01 0.189E+00   -.123E+02 -.695E+01 -.183E+00   0.542E+00 0.298E+00 -.515E-02
   -.349E+00 -.407E+02 0.114E+01   -.109E+01 0.443E+02 -.113E+01   0.123E+01 -.334E+01 -.653E-02
   -.357E+01 -.343E+01 0.747E+00   0.363E+01 0.385E+01 -.747E+00   -.394E-01 -.231E+00 0.401E-02
   -.129E+01 -.105E+02 0.684E+00   0.145E+01 0.109E+02 -.684E+00   0.176E+00 -.339E+00 -.146E-02
   0.217E+02 0.928E+01 0.853E+00   -.241E+02 -.892E+01 -.849E+00   0.227E+01 -.275E+00 0.641E-04
   0.565E+01 0.908E+00 -.989E-01   -.590E+01 -.136E+01 0.102E+00   0.258E+00 0.384E+00 -.443E-02
   0.126E+01 0.946E+00 -.145E-01   -.126E+01 -.832E+00 0.176E-01   -.316E-01 -.468E-03 -.209E-02
   -.604E+01 -.553E+01 0.333E+00   0.579E+01 0.553E+01 -.336E+00   0.175E+00 -.105E+00 0.359E-02
   0.804E+00 -.302E+01 -.802E+00   -.864E+00 0.313E+01 0.796E+00   0.680E-01 -.108E+00 0.130E-02
   -.323E+01 -.126E+01 0.271E+00   0.327E+01 0.156E+01 -.278E+00   0.762E-01 -.151E+00 0.470E-02
   -.489E+01 0.142E+02 0.276E+00   0.502E+01 -.150E+02 -.275E+00   -.643E-01 0.490E+00 0.118E-02
   0.156E+01 0.709E+01 -.315E+00   -.119E+01 -.704E+01 0.321E+00   -.446E+00 0.394E-01 -.855E-02
   -.168E+01 0.803E+01 0.781E+00   0.166E+01 -.832E+01 -.774E+00   -.222E-01 0.621E-01 -.543E-02
   -.908E+01 0.188E+02 0.175E+01   0.936E+01 -.189E+02 -.176E+01   -.145E+00 0.250E+00 0.143E-01
   -.222E+02 0.415E+02 0.177E+01   0.243E+02 -.443E+02 -.175E+01   -.236E+01 0.308E+01 -.157E-01
   -.306E+02 0.642E+02 0.489E+00   0.328E+02 -.676E+02 -.479E+00   -.216E+01 0.311E+01 -.968E-02
   0.399E+02 -.379E+02 -.379E+00   -.419E+02 0.407E+02 0.361E+00   0.235E+01 -.291E+01 0.174E-01
   -.501E+01 -.467E+01 -.645E+00   0.538E+01 0.477E+01 0.647E+00   -.381E+00 -.689E-01 -.515E-02
   -.177E+02 -.194E+02 -.793E-01   0.180E+02 0.213E+02 0.853E-01   -.791E+00 -.215E+01 -.725E-02
   0.851E+01 -.104E+02 -.155E+00   -.878E+01 0.110E+02 0.159E+00   0.243E+00 -.551E+00 -.628E-02
   0.222E+01 -.585E+00 0.459E+00   -.222E+01 0.598E+00 -.455E+00   0.116E-02 0.216E-01 0.110E-02
   -.532E+00 0.253E+01 0.506E+00   0.614E+00 -.248E+01 -.503E+00   -.382E-01 0.226E-02 0.326E-03
   -.866E+00 -.362E+01 0.646E+00   0.108E+01 0.401E+01 -.647E+00   -.143E+00 -.377E+00 0.439E-02
   -.116E+01 0.201E+01 -.287E+00   0.105E+01 -.212E+01 0.284E+00   0.915E-01 0.732E-01 0.406E-02
   0.321E+01 0.755E+01 -.535E+00   -.333E+01 -.777E+01 0.538E+00   0.494E-01 0.158E+00 -.361E-02
   -.956E+01 0.227E+02 -.109E+01   0.969E+01 -.227E+02 0.110E+01   -.214E+00 0.927E-01 -.150E-01
   -.305E+01 0.105E+02 -.208E+00   0.296E+01 -.105E+02 0.203E+00   0.138E+00 -.783E-01 0.517E-02
   -.257E+01 0.104E+02 -.647E+00   0.254E+01 -.106E+02 0.645E+00   -.253E-01 0.349E+00 0.107E-02
   -.118E+02 0.126E+02 -.763E+00   0.122E+02 -.129E+02 0.758E+00   -.277E+00 0.294E+00 0.656E-02
   -.267E+02 0.563E+02 -.169E+01   0.280E+02 -.598E+02 0.166E+01   -.148E+01 0.352E+01 0.264E-01
   -.139E+02 0.409E+01 -.476E+00   0.141E+02 -.419E+01 0.486E+00   -.619E-01 0.453E-01 -.892E-02
   -.223E+02 -.107E+02 -.387E+00   0.227E+02 0.112E+02 0.382E+00   -.532E+00 -.349E+00 0.638E-02
   -.399E+02 -.330E+02 -.142E+01   0.431E+02 0.333E+02 0.142E+01   -.335E+01 -.218E+00 -.240E-02
   -.460E+02 -.415E+02 -.200E+01   0.481E+02 0.443E+02 0.198E+01   -.195E+01 -.286E+01 0.107E-01
   -.130E+02 -.881E+01 0.558E+00   0.132E+02 0.913E+01 -.558E+00   -.271E+00 -.320E+00 0.375E-02
   -.338E+01 -.890E+01 0.603E+00   0.386E+01 0.899E+01 -.602E+00   -.435E+00 -.784E-01 0.342E-02
   0.482E+00 -.165E+02 0.246E+00   -.415E+00 0.169E+02 -.246E+00   -.579E-01 -.451E+00 0.101E-02
   -.150E+02 -.184E+02 -.274E-01   0.156E+02 0.188E+02 0.240E-01   -.556E+00 -.332E+00 0.317E-02
   -.586E+01 -.639E+01 0.637E+00   0.591E+01 0.650E+01 -.638E+00   0.882E-03 -.145E+00 0.564E-02
   -.335E+02 -.408E+02 0.219E+01   0.520E+02 0.408E+02 -.221E+01   -.178E+02 0.216E+00 0.249E-01
   -.195E+02 -.539E+00 0.521E+01   0.289E+02 0.161E+02 -.550E+01   -.876E+01 -.157E+02 0.284E+00
   0.391E+01 0.752E+02 0.838E+00   -.110E+02 -.649E+02 -.803E+00   0.715E+01 -.965E+01 -.153E-01
   -.416E+02 0.827E+02 0.146E+01   0.568E+02 -.109E+03 -.153E+01   -.141E+02 0.249E+02 0.644E-01
   0.497E+02 -.341E+02 -.202E+01   -.597E+02 0.163E+02 0.208E+01   0.944E+01 0.171E+02 -.612E-01
   -.275E+02 0.300E+02 -.543E+01   0.701E+01 -.299E+02 0.562E+01   0.193E+02 -.225E+00 -.192E+00
   0.814E+02 -.103E+03 0.102E+02   -.827E+02 0.100E+03 -.100E+02   0.617E+00 0.355E+01 -.196E+00
   0.122E+03 -.122E+03 -.101E+02   -.120E+03 0.121E+03 0.101E+02   -.204E+01 0.150E+01 0.472E-01
 -----------------------------------------------------------------------------------------------
   0.741E+01 -.236E+02 0.681E-01   -.128E-12 0.156E-12 0.000E+00   -.715E+01 0.225E+02 -.640E-01
 
 
 POSITION                                       TOTAL-FORCE (eV/Angst)
 -----------------------------------------------------------------------------------
      2.95076     12.28534     10.04689         0.064283      0.080700     -0.007451
      0.68888      1.24453     10.04272         0.029192     -0.043961     -0.004832
      1.41909      0.01987     10.04242        -0.138762     -0.027615     -0.005680
      3.56249      1.24557     10.04103        -0.092277     -0.044486     -0.001837
      2.83438      2.46708     10.03980        -0.066538      0.080601     -0.003471
      0.70594      3.69854     10.04157         0.048075     -0.030416     -0.002923
      1.40575      2.46954     10.04263         0.007064     -0.004207     -0.006173
      3.54818      3.68381     10.03344        -0.009121     -0.003584      0.000019
      2.85551      4.92817     10.03396         0.250220     -0.096225      0.000337
      0.76917      6.16275     10.03908        -0.173607     -0.170603      0.001802
      1.44456      4.92083     10.03836        -0.014431     -0.026802     -0.000043
      2.97226      7.32843     10.03555        -0.152253      0.024323      0.001986
      0.82122      8.61091     10.03862         0.023047      0.183492      0.003548
      1.53580      7.37512     10.03751         0.340251      0.100551     -0.001360
      3.73309      8.58843     10.03886        -0.019259      0.080345      0.003673
      2.97353      9.81533     10.04223         0.030123     -0.045607     -0.001636
      0.80566     11.06287     10.04219        -0.019823      0.119124      0.000896
      1.53645      9.83433     10.04062        -0.069070     -0.112167      0.001704
      3.68057     11.05370     10.04581         0.010370     -0.003850     -0.005553
      7.14380      0.07616     10.04212         0.114824      0.135858     -0.002152
      4.99166      1.27921     10.03891         0.056849     -0.202489      0.001667
      5.71848      0.04720     10.04202        -0.090125      0.090133     -0.003544
      7.83723      1.34505     10.04079        -0.039801     -0.229592      0.001479
      7.11149      2.58609     10.03716         0.131018      0.143530      0.009505
      5.66905      2.55696     10.03357        -0.393603      0.473400      0.000861
      7.83578      3.85800     10.04323        -0.067426     -0.111129      0.000298
      7.27608      9.81507     10.04977         0.458295     -0.226532      0.000576
      5.11348     11.05660     10.04636        -0.042326      0.029940     -0.003968
      5.79127      9.77786     10.04534        -0.477132     -0.377584     -0.001700
      7.95174     11.10289     10.04839        -0.008239     -0.002781     -0.002845
     11.43377      0.12467     10.04609         0.002705      0.037956      0.005147
      9.27607      1.36826     10.04399         0.042046      0.045886      0.003100
      9.99706      0.13107     10.04432         0.065268     -0.006709      0.004109
     12.14826      1.35539     10.04948        -0.014285     -0.034835      0.001080
     11.43308      2.58995     10.05038        -0.065178     -0.057684     -0.000357
      9.29091      3.86853     10.05071        -0.085042      0.068828     -0.007464
      9.99171      2.61593     10.04816         0.050717     -0.153647      0.000125
     12.17311      3.80931     10.05194        -0.056444      0.087943     -0.000675
     11.49248      5.05167     10.05348         0.088214     -0.084931      0.001921
     10.05764      5.10225     10.05630        -0.220222      0.261546     -0.001257
     12.24537      6.26646     10.05218         0.163353     -0.047030      0.000286
     11.55919      7.50687     10.05295        -0.193216      0.130375      0.001894
      9.39574      8.71924     10.05545        -0.264531      0.022614     -0.004273
     10.14811      7.49107     10.05810         0.081173     -0.186254     -0.003217
     12.28692      8.72355     10.04935        -0.051353     -0.015847      0.003761
     11.55718      9.94220     10.04912         0.024869      0.015648      0.004486
      9.38764     11.15625     10.04871         0.007639     -0.063056      0.000760
     10.12140      9.93952     10.05083         0.014775      0.012544      0.000001
     12.26363     11.17217     10.04928         0.045901     -0.044758      0.005386
      3.60986      6.10252     10.03249        -0.868852      0.194812      0.011190
      4.92867      3.71928     10.02700        -0.141920     -1.443422      0.025155
      7.12768      4.99456     10.04277         0.670365     -0.132157      0.018592
      5.10411      8.59317     10.04024        -0.092014      0.893272      0.004974
      8.01326      8.65845     10.05491         0.282097      0.735110     -0.002523
      9.45446      6.32028     10.06245         0.440112     -0.140262     -0.014960
      5.46422      5.58538     10.02688        -0.000836      0.271024     -0.015493
      7.56911      6.75083     10.05813         0.384841     -0.149334     -0.014929
 -----------------------------------------------------------------------------------
    total drift:                                0.009927      0.003966     -0.002885


--------------------------------------------------------------------------------------------------------



  FREE ENERGIE OF THE ION-ELECTRON SYSTEM (eV)
  ---------------------------------------------------
  free  energy   TOTEN  =      -592.15391192 eV

  energy  without entropy=     -592.15333687  energy(sigma->0) =     -592.15362440
 


--------------------------------------------------------------------------------------------------------


    POTLOK:  cpu time    3.3690: real time    3.3756


--------------------------------------------------------------------------------------------------------


 stress matrix after NEB project (eV)
    -43.71168     -0.16127     -0.01233
     -0.16129    -41.40285     -0.00749
     -0.01593     -0.01276     -0.40420
  FORCES: max atom, RMS     1.450600    0.357542
  FORCE total and by dimension    2.699383    1.443422
  Stress total and by dimension   60.208991   43.711676
 writing wavefunctions
     LOOP+:  cpu time46341.6708: real time46349.3764
    4ORBIT:  cpu time    0.0000: real time    0.0000
 


 total charge     
 
# of ion       s       p       d       tot
------------------------------------------
    1        0.863   1.776   0.000   2.639
    2        0.866   1.771   0.000   2.637
    3        0.866   1.776   0.000   2.642
    4        0.870   1.772   0.000   2.641
    5        0.870   1.789   0.000   2.659
    6        0.866   1.784   0.000   2.650
    7        0.869   1.786   0.000   2.655
    8        0.864   1.770   0.000   2.634
    9        0.862   1.755   0.000   2.617
   10        0.869   1.781   0.000   2.650
   11        0.872   1.791   0.000   2.663
   12        0.851   1.706   0.000   2.557
   13        0.867   1.776   0.000   2.643
   14        0.862   1.766   0.000   2.629
   15        0.850   1.716   0.000   2.565
   16        0.864   1.757   0.000   2.622
   17        0.866   1.767   0.000   2.633
   18        0.864   1.774   0.000   2.639
   19        0.868   1.755   0.000   2.623
   20        0.858   1.765   0.000   2.624
   21        0.862   1.761   0.000   2.624
   22        0.862   1.758   0.000   2.620
   23        0.860   1.734   0.000   2.594
   24        0.853   1.753   0.000   2.606
   25        0.855   1.709   0.000   2.564
   26        0.858   1.707   0.000   2.565
   27        0.850   1.694   0.000   2.544
   28        0.860   1.750   0.000   2.610
   29        0.850   1.699   0.000   2.549
   30        0.859   1.748   0.000   2.607
   31        0.865   1.771   0.000   2.636
   32        0.860   1.756   0.000   2.616
   33        0.862   1.760   0.000   2.623
   34        0.866   1.767   0.000   2.633
   35        0.864   1.764   0.000   2.628
   36        0.852   1.755   0.000   2.607
   37        0.861   1.742   0.000   2.603
   38        0.868   1.777   0.000   2.645
   39        0.867   1.778   0.000   2.645
   40        0.858   1.724   0.000   2.582
   41        0.869   1.782   0.000   2.651
   42        0.873   1.802   0.000   2.674
   43        0.861   1.747   0.000   2.608
   44        0.866   1.767   0.000   2.632
   45        0.867   1.782   0.000   2.650
   46        0.866   1.780   0.000   2.646
   47        0.867   1.759   0.000   2.626
   48        0.868   1.778   0.000   2.646
   49        0.866   1.770   0.000   2.636
   50        1.224   2.689   0.000   3.914
   51        1.229   2.676   0.000   3.905
   52        1.251   2.604   0.000   3.855
   53        1.246   2.605   0.000   3.851
   54        1.228   2.649   0.000   3.877
   55        1.233   2.696   0.000   3.929
   56        0.446   0.612   6.164   7.221
   57        0.443   0.486   9.219  10.149
--------------------------------------------------
tot         50.584 103.226  15.383 169.193
 


 magnetization (x)
 
# of ion       s       p       d       tot
------------------------------------------
    1        0.000   0.003   0.000   0.003
    2       -0.000  -0.002   0.000  -0.002
    3        0.000   0.002   0.000   0.003
    4        0.000   0.000   0.000   0.000
    5        0.000  -0.001   0.000  -0.001
    6        0.000   0.003   0.000   0.003
    7        0.000  -0.000   0.000  -0.000
    8        0.000   0.001   0.000   0.002
    9        0.001   0.000   0.000   0.001
   10       -0.001  -0.010   0.000  -0.010
   11        0.000   0.001   0.000   0.001
   12        0.001   0.004   0.000   0.005
   13        0.000   0.004   0.000   0.004
   14        0.000   0.002   0.000   0.003
   15       -0.001  -0.002   0.000  -0.003
   16        0.000   0.000   0.000   0.001
   17       -0.000  -0.001   0.000  -0.001
   18       -0.000  -0.000   0.000  -0.000
   19       -0.000  -0.000   0.000  -0.000
   20       -0.000   0.000   0.000   0.000
   21       -0.000  -0.003   0.000  -0.003
   22        0.001   0.007   0.000   0.008
   23       -0.000  -0.000   0.000  -0.000
   24       -0.000  -0.004   0.000  -0.004
   25        0.000   0.000   0.000   0.001
   26        0.003   0.013   0.000   0.015
   27        0.000   0.004   0.000   0.004
   28       -0.000  -0.003   0.000  -0.003
   29        0.000   0.005   0.000   0.005
   30       -0.000  -0.001   0.000  -0.001
   31        0.000   0.004   0.000   0.005
   32        0.000   0.004   0.000   0.005
   33        0.000   0.003   0.000   0.003
   34       -0.000   0.000   0.000   0.000
   35       -0.000  -0.001   0.000  -0.001
   36       -0.000   0.000   0.000  -0.000
   37       -0.000  -0.002   0.000  -0.003
   38        0.000   0.005   0.000   0.005
   39       -0.001  -0.008   0.000  -0.009
   40        0.000   0.006   0.000   0.006
   41        0.000   0.001   0.000   0.001
   42       -0.001  -0.004   0.000  -0.004
   43       -0.000   0.001   0.000   0.001
   44        0.001   0.007   0.000   0.007
   45        0.000   0.005   0.000   0.006
   46       -0.000  -0.000   0.000  -0.000
   47        0.000   0.002   0.000   0.002
   48       -0.000  -0.000   0.000  -0.000
   49       -0.000  -0.000   0.000  -0.000
   50       -0.005  -0.035   0.000  -0.039
   51        0.004   0.008   0.000   0.011
   52       -0.008  -0.116   0.000  -0.124
   53        0.006   0.028   0.000   0.033
   54       -0.000   0.014   0.000   0.013
   55       -0.011  -0.054   0.000  -0.065
   56        0.070   0.049   2.984   3.103
   57       -0.007   0.001  -0.221  -0.226
--------------------------------------------------
tot          0.055  -0.056   2.763   2.761
 

 total amount of memory used by VASP MPI-rank0   175694. kBytes
=======================================================================

   base      :      30000. kBytes
   nonl-proj :       5292. kBytes
   fftplans  :      13453. kBytes
   grid      :      34560. kBytes
   one-center:         62. kBytes
   HF        :         23. kBytes
   nonlr-proj:      15228. kBytes
   wavefun   :      77076. kBytes
 
  
  
 General timing and accounting informations for this job:
 ========================================================
  
                  Total CPU time used (sec):    46429.656
                            User time (sec):    46372.588
                          System time (sec):       57.067
                         Elapsed time (sec):    46438.669
  
                   Maximum memory used (kb):      420088.
                   Average memory used (kb):           0.
  
                          Minor page faults:       478086
                          Major page faults:            3
                 Voluntary context switches:         1328
