 vasp.5.4.4.18Apr17-6-g9f103f2a35 (build Feb 25 2019 10:51:38) complex          
  
 executed on             LinuxIFC date 2022.01.27  12:31:32
 running on   32 total cores
 distrk:  each k-point on   32 cores,    1 groups
 distr:  one band on NCORES_PER_BAND=  32 cores,    1 groups


--------------------------------------------------------------------------------------------------------


 INCAR:
 POTCAR:    PAW_PBE C 08Apr2002                   
 POTCAR:    PAW_PBE N 08Apr2002                   
 POTCAR:    PAW_PBE Fe 06Sep2000                  
 POTCAR:    PAW_PBE Zn 06Sep2000                  

 ----------------------------------------------------------------------------- 
|                                                                             |
|           W    W    AA    RRRRR   N    N  II  N    N   GGGG   !!!           |
|           W    W   A  A   R    R  NN   N  II  NN   N  G    G  !!!           |
|           W    W  A    A  R    R  N N  N  II  N N  N  G       !!!           |
|           W WW W  AAAAAA  RRRRR   N  N N  II  N  N N  G  GGG   !            |
|           WW  WW  A    A  R   R   N   NN  II  N   NN  G    G                |
|           W    W  A    A  R    R  N    N  II  N    N   GGGG   !!!           |
|                                                                             |
|      For optimal performance we recommend to set                            |
|        NCORE= 4 - approx SQRT( number of cores)                             |
|      NCORE specifies how many cores store one orbital (NPAR=cpu/NCORE).     |
|      This setting can  greatly improve the performance of VASP for DFT.     |
|      The default,   NCORE=1            might be grossly inefficient         |
|      on modern multi-core architectures or massively parallel machines.     |
|      Do your own testing !!!!                                               |
|      Unfortunately you need to use the default for GW and RPA calculations. |
|      (for HF NCORE is supported but not extensively tested yet)             |
|                                                                             |
 ----------------------------------------------------------------------------- 

 POTCAR:    PAW_PBE C 08Apr2002                   
   VRHFIN =C: s2p2                                                              
   LEXCH  = PE                                                                  
   EATOM  =   147.1560 eV,   10.8157 Ry                                         
                                                                                
   TITEL  = PAW_PBE C 08Apr2002                                                 
   LULTRA =        F    use ultrasoft PP ?                                      
   IUNSCR =        1    unscreen: 0-lin 1-nonlin 2-no                           
   RPACOR =    1.200    partial core radius                                     
   POMASS =   12.011; ZVAL   =    4.000    mass and valenz                      
   RCORE  =    1.500    outmost cutoff radius                                   
   RWIGS  =    1.630; RWIGS  =    0.863    wigner-seitz radius (au A)           
   ENMAX  =  400.000; ENMIN  =  300.000 eV                                      
   ICORE  =        2    local potential                                         
   LCOR   =        T    correct aug charges                                     
   LPAW   =        T    paw PP                                                  
   EAUG   =  644.873                                                            
   DEXC   =    0.000                                                            
   RMAX   =    1.529    core radius for proj-oper                               
   RAUG   =    1.300    factor for augmentation sphere                          
   RDEP   =    1.501    radius for radial grids                                 
   RDEPT  =    1.300    core radius for aug-charge                              
                                                                                
   Atomic configuration                                                         
    4 entries                                                                   
     n  l   j            E        occ.                                          
     1  0  0.50      -273.3789   2.0000                                         
     2  0  0.50       -13.7508   2.0000                                         
     2  1  0.50        -5.2854   2.0000                                         
     3  2  1.50        -5.4423   0.0000                                         
   Description                                                                  
     l       E           TYP  RCUT    TYP  RCUT                                 
     0    -13.7508458     23  1.200                                             
     0     -8.2022199     23  1.200                                             
     1     -5.2854383     23  1.500                                             
     1     34.0145650     23  1.500                                             
     2     -5.4423304      7  1.500                                             
  local pseudopotential read in
  partial core-charges read in
  partial kinetic energy density read in
  atomic valenz-charges read in
  non local Contribution for L=           0  read in
    real space projection operators read in
  non local Contribution for L=           0  read in
    real space projection operators read in
  non local Contribution for L=           1  read in
    real space projection operators read in
  non local Contribution for L=           1  read in
    real space projection operators read in
    PAW grid and wavefunctions read in
 
   number of l-projection  operators is LMAX  =           4
   number of lm-projection operators is LMMAX =           8
 
 POTCAR:    PAW_PBE N 08Apr2002                   
   VRHFIN =N: s2p3                                                              
   LEXCH  = PE                                                                  
   EATOM  =   264.5486 eV,   19.4438 Ry                                         
                                                                                
   TITEL  = PAW_PBE N 08Apr2002                                                 
   LULTRA =        F    use ultrasoft PP ?                                      
   IUNSCR =        1    unscreen: 0-lin 1-nonlin 2-no                           
   RPACOR =    1.200    partial core radius                                     
   POMASS =   14.001; ZVAL   =    5.000    mass and valenz                      
   RCORE  =    1.500    outmost cutoff radius                                   
   RWIGS  =    1.400; RWIGS  =    0.741    wigner-seitz radius (au A)           
   ENMAX  =  400.000; ENMIN  =  300.000 eV                                      
   ICORE  =        2    local potential                                         
   LCOR   =        T    correct aug charges                                     
   LPAW   =        T    paw PP                                                  
   EAUG   =  627.112                                                            
   DEXC   =    0.000                                                            
   RMAX   =    1.529    core radius for proj-oper                               
   RAUG   =    1.300    factor for augmentation sphere                          
   RDEP   =    1.514    radius for radial grids                                 
   RDEPT  =    1.338    core radius for aug-charge                              
                                                                                
   Atomic configuration                                                         
    4 entries                                                                   
     n  l   j            E        occ.                                          
     1  0  0.50      -384.7179   2.0000                                         
     2  0  0.50       -18.5828   2.0000                                         
     2  1  0.50        -7.0898   3.0000                                         
     3  2  1.50        -6.8029   0.0000                                         
   Description                                                                  
     l       E           TYP  RCUT    TYP  RCUT                                 
     0    -18.5828119     23  1.200                                             
     0    -13.5018863     23  1.200                                             
     1     -7.0897853     23  1.500                                             
     1      9.5240782     23  1.500                                             
     2     -6.8029130      7  1.500                                             
  local pseudopotential read in
  partial core-charges read in
  partial kinetic energy density read in
  atomic valenz-charges read in
  non local Contribution for L=           0  read in
    real space projection operators read in
  non local Contribution for L=           0  read in
    real space projection operators read in
  non local Contribution for L=           1  read in
    real space projection operators read in
  non local Contribution for L=           1  read in
    real space projection operators read in
    PAW grid and wavefunctions read in
 
   number of l-projection  operators is LMAX  =           4
   number of lm-projection operators is LMMAX =           8
 
 POTCAR:    PAW_PBE Fe 06Sep2000                  
   VRHFIN =Fe:  d7 s1                                                           
   LEXCH  = PE                                                                  
   EATOM  =   594.3153 eV,   43.6809 Ry                                         
                                                                                
   TITEL  = PAW_PBE Fe 06Sep2000                                                
   LULTRA =        F    use ultrasoft PP ?                                      
   IUNSCR =        1    unscreen: 0-lin 1-nonlin 2-no                           
   RPACOR =    2.000    partial core radius                                     
   POMASS =   55.847; ZVAL   =    8.000    mass and valenz                      
   RCORE  =    2.300    outmost cutoff radius                                   
   RWIGS  =    2.460; RWIGS  =    1.302    wigner-seitz radius (au A)           
   ENMAX  =  267.882; ENMIN  =  200.911 eV                                      
   RCLOC  =    1.701    cutoff for local pot                                    
   LCOR   =        T    correct aug charges                                     
   LPAW   =        T    paw PP                                                  
   EAUG   =  511.368                                                            
   DEXC   =    0.000                                                            
   RMAX   =    2.356    core radius for proj-oper                               
   RAUG   =    1.300    factor for augmentation sphere                          
   RDEP   =    2.442    radius for radial grids                                 
   RDEPT  =    1.890    core radius for aug-charge                              
                                                                                
   Atomic configuration                                                         
    9 entries                                                                   
     n  l   j            E        occ.                                          
     1  0  0.50     -6993.8440   2.0000                                         
     2  0  0.50      -814.6047   2.0000                                         
     2  1  1.50      -693.3689   6.0000                                         
     3  0  0.50       -89.4732   2.0000                                         
     3  1  1.50       -55.6373   6.0000                                         
     3  2  2.50        -3.8151   7.0000                                         
     4  0  0.50        -4.2551   1.0000                                         
     4  1  1.50        -3.4015   0.0000                                         
     4  3  2.50        -1.3606   0.0000                                         
   Description                                                                  
     l       E           TYP  RCUT    TYP  RCUT                                 
     2     -3.8151135     23  2.300                                             
     2     -5.1756961     23  2.300                                             
     0     -4.2550963     23  2.300                                             
     0      7.2035603     23  2.300                                             
     1     -2.7211652     23  2.300                                             
     1     18.4316424     23  2.300                                             
  local pseudopotential read in
  partial core-charges read in
  partial kinetic energy density read in
  atomic valenz-charges read in
  non local Contribution for L=           2  read in
    real space projection operators read in
  non local Contribution for L=           2  read in
    real space projection operators read in
  non local Contribution for L=           0  read in
    real space projection operators read in
  non local Contribution for L=           0  read in
    real space projection operators read in
  non local Contribution for L=           1  read in
    real space projection operators read in
  non local Contribution for L=           1  read in
    real space projection operators read in
    PAW grid and wavefunctions read in
 
   number of l-projection  operators is LMAX  =           6
   number of lm-projection operators is LMMAX =          18
 
 POTCAR:    PAW_PBE Zn 06Sep2000                  
   VRHFIN =Zn: d10 p2                                                           
   LEXCH  = PE                                                                  
   EATOM  =  1748.8345 eV,  128.5357 Ry                                         
                                                                                
   TITEL  = PAW_PBE Zn 06Sep2000                                                
   LULTRA =        F    use ultrasoft PP ?                                      
   IUNSCR =        1    unscreen: 0-lin 1-nonlin 2-no                           
   RPACOR =    2.000    partial core radius                                     
   POMASS =   65.390; ZVAL   =   12.000    mass and valenz                      
   RCORE  =    2.300    outmost cutoff radius                                   
   RWIGS  =    2.400; RWIGS  =    1.270    wigner-seitz radius (au A)           
   ENMAX  =  276.723; ENMIN  =  207.542 eV                                      
   RCLOC  =    1.828    cutoff for local pot                                    
   LCOR   =        T    correct aug charges                                     
   LPAW   =        T    paw PP                                                  
   EAUG   =  575.892                                                            
   DEXC   =    0.000                                                            
   RMAX   =    2.347    core radius for proj-oper                               
   RAUG   =    1.300    factor for augmentation sphere                          
   RDEP   =    2.324    radius for radial grids                                 
   RDEPT  =    1.788    core radius for aug-charge                              
                                                                                
   Atomic configuration                                                         
    9 entries                                                                   
     n  l   j            E        occ.                                          
     1  0  0.50     -9524.6913   2.0000                                         
     2  0  0.50     -1158.1882   2.0000                                         
     2  1  1.50     -1003.8506   6.0000                                         
     3  0  0.50      -129.2194   2.0000                                         
     3  1  1.50       -83.3890   6.0000                                         
     3  2  2.50       -10.1410  10.0000                                         
     4  0  0.50        -5.9785   2.0000                                         
     4  1  0.50        -4.0817   0.0000                                         
     4  3  2.50        -1.3606   0.0000                                         
   Description                                                                  
     l       E           TYP  RCUT    TYP  RCUT                                 
     2    -10.1410010     23  2.300                                             
     2    -11.5015836     23  2.300                                             
     0     -5.9785163     23  2.300                                             
     0      1.1858015     23  2.300                                             
     1     -2.7211652     23  2.300                                             
     1     13.2444212     23  2.300                                             
  local pseudopotential read in
  partial core-charges read in
  partial kinetic energy density read in
  atomic valenz-charges read in
  non local Contribution for L=           2  read in
    real space projection operators read in
  non local Contribution for L=           2  read in
    real space projection operators read in
  non local Contribution for L=           0  read in
    real space projection operators read in
  non local Contribution for L=           0  read in
    real space projection operators read in
  non local Contribution for L=           1  read in
    real space projection operators read in
  non local Contribution for L=           1  read in
    real space projection operators read in
    PAW grid and wavefunctions read in
 
   number of l-projection  operators is LMAX  =           6
   number of lm-projection operators is LMMAX =          18
 

 ----------------------------------------------------------------------------- 
|                                                                             |
|  ADVICE TO THIS USER RUNNING 'VASP/VAMP'   (HEAR YOUR MASTER'S VOICE ...):  |
|                                                                             |
|      You have a (more or less) 'large supercell' and for larger cells       |
|      it might be more efficient to use real space projection opertators     |
|      So try LREAL= Auto  in the INCAR   file.                               |
|      Mind:          For very  accurate calculation you might also keep the  |
|      reciprocal projection scheme          (i.e. LREAL=.FALSE.)             |
|                                                                             |
 ----------------------------------------------------------------------------- 

  PAW_PBE C 08Apr2002                   :
 energy of atom  1       EATOM= -147.1560
 kinetic energy error for atom=    0.0076 (will be added to EATOM!!)
  PAW_PBE N 08Apr2002                   :
 energy of atom  2       EATOM= -264.5486
 kinetic energy error for atom=    0.0138 (will be added to EATOM!!)
  PAW_PBE Fe 06Sep2000                  :
 energy of atom  3       EATOM= -594.3153
 kinetic energy error for atom=    0.0026 (will be added to EATOM!!)
  PAW_PBE Zn 06Sep2000                  :
 energy of atom  4       EATOM=-1748.8345
 kinetic energy error for atom=    0.0029 (will be added to EATOM!!)
 
 
 POSCAR:  C  N Fe Zn                             
  positions in cartesian coordinates
  No initial velocities read in
 exchange correlation table for  LEXCH =        8
   RHO(1)=    0.500       N(1)  =     2000
   RHO(2)=  100.500       N(2)  =     4000

 VTST: version 3.2, (02/03/18)

 CHAIN: initializing optimizer
 
 OPT: Using VASP Conjugate-Gradient optimizer
 CHAIN: Read ICHAIN            0
 
 POSCAR:  C  N Fe Zn                             
  positions in cartesian coordinates
  No initial velocities read in
 


--------------------------------------------------------------------------------------------------------


 ion  position               nearest neighbor table
   1  0.222  0.999  0.500-   4 1.41  17 1.42   3 1.42
   2  0.055  0.099  0.500-   7 1.42   3 1.43  34 1.43
   3  0.110  0.999  0.500-   1 1.42  15 1.42   2 1.43
   4  0.277  0.096  0.500-   1 1.41   5 1.42  19 1.43
   5  0.221  0.195  0.500-   8 1.41   4 1.42   7 1.42
   6  0.056  0.299  0.500-  10 1.43   7 1.43  38 1.44
   7  0.110  0.198  0.500-   2 1.42   5 1.42   6 1.43
   8  0.277  0.292  0.500-  51 1.36  53 1.39   5 1.41
   9  0.062  0.498  0.500-  10 1.45  12 1.46  42 1.47
  10  0.117  0.396  0.500-  51 1.40   6 1.43   9 1.45
  11  0.058  0.699  0.500-  16 1.43  46 1.43  12 1.44
  12  0.118  0.601  0.500-  52 1.38  11 1.44   9 1.46
  13  0.278  0.703  0.500-  52 1.38  14 1.41  25 1.45
  14  0.223  0.801  0.500-  13 1.41  17 1.41  16 1.43
  15  0.056  0.899  0.500-  50 1.42   3 1.42  16 1.42
  16  0.112  0.800  0.500-  15 1.42  11 1.43  14 1.43
  17  0.278  0.900  0.500-  14 1.41  28 1.42   1 1.42
  18  0.556  0.999  0.500-  21 1.41  20 1.42  30 1.42
  19  0.389  0.097  0.500-  23 1.41  20 1.42   4 1.43
  20  0.445  0.999  0.500-  19 1.42  28 1.42  18 1.42
  21  0.610  0.097  0.500-  18 1.41  22 1.41  32 1.43
  22  0.555  0.196  0.500-  54 1.37  21 1.41  23 1.45
  23  0.442  0.196  0.500-  53 1.39  19 1.41  22 1.45
  24  0.555  0.608  0.500-  55 1.36  56 1.39  26 1.41
  25  0.391  0.703  0.500-  56 1.40  29 1.41  13 1.45
  26  0.612  0.705  0.500-  24 1.41  27 1.41  44 1.43
  27  0.556  0.803  0.500-  30 1.41  26 1.41  29 1.43
  28  0.389  0.900  0.500-  17 1.42  20 1.42  29 1.42
  29  0.445  0.802  0.500-  25 1.41  28 1.42  27 1.43
  30  0.612  0.901  0.500-  27 1.41  18 1.42  48 1.42
  31  0.889  1.000  0.500-  33 1.42  34 1.42  50 1.43
  32  0.722  0.099  0.500-  33 1.42  37 1.43  21 1.43
  33  0.778  1.000  0.500-  31 1.42  32 1.42  48 1.42
  34  0.943  0.100  0.500-  31 1.42   2 1.43  35 1.43
  35  0.888  0.200  0.500-  37 1.43  38 1.43  34 1.43
  36  0.717  0.298  0.500-  54 1.38  37 1.44  41 1.46
  37  0.776  0.200  0.500-  32 1.43  35 1.43  36 1.44
  38  0.943  0.301  0.500-  35 1.43  39 1.44   6 1.44
  39  0.886  0.401  0.500-  38 1.44  42 1.45  41 1.48
  40  0.717  0.504  0.500-  55 1.40  45 1.43  41 1.45
  41  0.771  0.401  0.500-  40 1.45  36 1.46  39 1.48
  42  0.947  0.499  0.500-  43 1.44  39 1.45   9 1.47
  43  0.891  0.599  0.500-  46 1.43  42 1.44  45 1.44
  44  0.723  0.701  0.500-  49 1.42  26 1.43  45 1.43
  45  0.778  0.600  0.500-  40 1.43  44 1.43  43 1.44
  46  0.946  0.699  0.500-  43 1.43  11 1.43  47 1.43
  47  0.890  0.799  0.500-  50 1.42  49 1.43  46 1.43
  48  0.723  0.900  0.500-  30 1.42  33 1.42  49 1.43
  49  0.779  0.800  0.500-  44 1.42  48 1.43  47 1.43
  50  0.945  0.900  0.500-  15 1.42  47 1.42  31 1.43
  51  0.226  0.388  0.500-   8 1.36  10 1.40  57 1.94
  52  0.225  0.606  0.500-  13 1.38  12 1.38  57 1.97
  53  0.386  0.292  0.500-   8 1.39  23 1.39  58 2.02
  54  0.609  0.291  0.500-  22 1.37  36 1.38  58 1.94
  55  0.608  0.513  0.500-  24 1.36  40 1.40  58 1.93
  56  0.446  0.605  0.500-  24 1.39  25 1.40  57 1.96
  57  0.335  0.496  0.500-  51 1.94  56 1.96  52 1.97  58 2.44
  58  0.502  0.402  0.502-  55 1.93  54 1.94  53 2.02  57 2.44
 
  LATTYP: Found a simple orthorhombic cell.
 ALAT       =    12.4000000000
 B/A-ratio  =     1.0330645161
 C/A-ratio  =     1.6129032258
  
  Lattice vectors:
  
 A1 = (   0.0000000000, -12.4000000000,   0.0000000000)
 A2 = ( -12.8100000000,   0.0000000000,   0.0000000000)
 A3 = (   0.0000000000,   0.0000000000, -20.0000000000)


Analysis of symmetry for initial positions (statically):
=====================================================================
 Subroutine PRICEL returns:
 Original cell was already a primitive cell.
 

 Routine SETGRP: Setting up the symmetry group for a 
 simple orthorhombic supercell.


 Subroutine GETGRP returns: Found  1 space group operations
 (whereof  1 operations were pure point group operations)
 out of a pool of  8 trial point group operations.


The static configuration has the point symmetry C_1 .


Analysis of symmetry for dynamics (positions and initial velocities):
=====================================================================
 Subroutine PRICEL returns:
 Original cell was already a primitive cell.
 

 Routine SETGRP: Setting up the symmetry group for a 
 simple orthorhombic supercell.


 Subroutine GETGRP returns: Found  1 space group operations
 (whereof  1 operations were pure point group operations)
 out of a pool of  8 trial point group operations.


The dynamic configuration has the point symmetry C_1 .


Analysis of structural, dynamic, and magnetic symmetry:
=====================================================================
 Subroutine PRICEL returns:
 Original cell was already a primitive cell.
 

 Routine SETGRP: Setting up the symmetry group for a 
 simple orthorhombic supercell.


 Subroutine GETGRP returns: Found  1 space group operations
 (whereof  1 operations were pure point group operations)
 out of a pool of  8 trial point group operations.


The magnetic configuration has the point symmetry C_1 .


 Subroutine INISYM returns: Found  1 space group operations
 (whereof  1 operations are pure point group operations),
 and found     1 'primitive' translations

 
 
 KPOINTS: KPOINTS created by Atomic Simulation Env

Automatic generation of k-mesh.
Space group operators:
 irot       det(A)        alpha          n_x          n_y          n_z        tau_x        tau_y        tau_z
    1     1.000000     0.000000     1.000000     0.000000     0.000000     0.000000     0.000000     0.000000
 
 Subroutine IBZKPT returns following result:
 ===========================================
 
 Found      2 irreducible k-points:
 
 Following reciprocal coordinates:
            Coordinates               Weight
  0.250000  0.250000  0.000000      2.000000
 -0.250000  0.250000  0.000000      2.000000
 
 Following cartesian coordinates:
            Coordinates               Weight
  0.019516  0.020161  0.000000      2.000000
 -0.019516  0.020161  0.000000      2.000000
 
 
 Subroutine IBZKPT_HF returns following result:
 ==============================================
 
 Found      4 k-points in 1st BZ
 the following      4 k-points will be used (e.g. in the exchange kernel)
 Following reciprocal coordinates:   # in IRBZ
  0.250000  0.250000  0.000000    0.25000000   1 t-inv F
 -0.250000  0.250000  0.000000    0.25000000   2 t-inv F
 -0.250000 -0.250000  0.000000    0.25000000   1 t-inv T
  0.250000 -0.250000  0.000000    0.25000000   2 t-inv T


--------------------------------------------------------------------------------------------------------




 Dimension of arrays:
   k-points           NKPTS =      2   k-points in BZ     NKDIM =      4   number of bands    NBANDS=    159
   number of dos      NEDOS =    301   number of ions     NIONS =     58
   non local maximal  LDIM  =      6   non local SUM 2l+1 LMDIM =     18
   total plane-waves  NPLWV = ******
   max r-space proj   IRMAX =      1   max aug-charges    IRDMAX=  14730
   dimension x,y,z NGX =    96 NGY =   90 NGZ =  150
   dimension x,y,z NGXF=   192 NGYF=  180 NGZF=  300
   support grid    NGXF=   192 NGYF=  180 NGZF=  300
   ions per type =              50   6   1   1
   NGX,Y,Z   is equivalent  to a cutoff of  12.46, 12.07, 12.47 a.u.
   NGXF,Y,Z  is equivalent  to a cutoff of  24.92, 24.13, 24.94 a.u.

 SYSTEM =  unknown system                          
 POSCAR =   C  N Fe Zn                             

 Startparameter for this run:
   NWRITE =      2    write-flag & timer
   PREC   = accura    normal or accurate (medium, high low for compatibility)
   ISTART =      1    job   : 0-new  1-cont  2-samecut
   ICHARG =      0    charge: 1-file 2-atom 10-const
   ISPIN  =      2    spin polarized calculation?
   LNONCOLLINEAR =      F non collinear calculations
   LSORBIT =      F    spin-orbit coupling
   INIWAV =      1    electr: 0-lowe 1-rand  2-diag
   LASPH  =      T    aspherical Exc in radial PAW
   METAGGA=      F    non-selfconsistent MetaGGA calc.

 Electronic Relaxation 1
   ENCUT  =  500.0 eV  36.75 Ry    6.06 a.u.  23.36 22.61 36.46*2*pi/ulx,y,z
   ENINI  =  500.0     initial cutoff
   ENAUG  =  644.9 eV  augmentation charge cutoff
   NELM   =    250;   NELMIN=  2; NELMDL=  0     # of ELM steps 
   EDIFF  = 0.1E-03   stopping-criterion for ELM
   LREAL  =      F    real-space projection
   NLSPLINE    = F    spline interpolate recip. space projectors
   LCOMPAT=      F    compatible to vasp.4.4
   GGA_COMPAT  = T    GGA compatible to vasp.4.4-vasp.4.6
   LMAXPAW     = -100 max onsite density
   LMAXMIX     =    2 max onsite mixed and CHGCAR
   VOSKOWN=      0    Vosko Wilk Nusair interpolation
   ROPT   =    0.00000   0.00000   0.00000   0.00000
 Ionic relaxation
   EDIFFG = -.3E-01   stopping-criterion for IOM
   NSW    =      0    number of steps for IOM
   NBLOCK =      1;   KBLOCK =      1    inner block; outer block 
   IBRION =     -1    ionic relax: 0-MD 1-quasi-New 2-CG
   NFREE  =      1    steps in history (QN), initial steepest desc. (CG)
   ISIF   =      2    stress and relaxation
   IWAVPR =     10    prediction:  0-non 1-charg 2-wave 3-comb
   ISYM   =      3    0-nonsym 1-usesym 2-fastsym
   LCORR  =      T    Harris-Foulkes like correction to forces

   POTIM  = 0.5000    time-step for ionic-motion
   TEIN   =    0.0    initial temperature
   TEBEG  =    0.0;   TEEND  =   0.0 temperature during run
   SMASS  =  -3.00    Nose mass-parameter (am)
   estimated Nose-frequenzy (Omega)   =  0.10E-29 period in steps =****** mass=  -0.375E-26a.u.
   SCALEE = 1.0000    scale energy and forces
   NPACO  =    256;   APACO  = 16.0  distance and # of slots for P.C.
   PSTRESS=    0.0 pullay stress

  Mass of Ions in am
   POMASS =  12.01 14.00 55.85 65.39
  Ionic Valenz
   ZVAL   =   4.00  5.00  8.00 12.00
  Atomic Wigner-Seitz radii
   RWIGS  =  -1.00 -1.00 -1.00 -1.00
  virtual crystal weights 
   VCA    =   1.00  1.00  1.00  1.00
   NELECT =     250.0000    total number of electrons
   NUPDOWN=      -1.0000    fix difference up-down

 DOS related values:
   EMIN   =  10.00;   EMAX   =-10.00  energy-range for DOS
   EFERMI =   0.00
   ISMEAR =     0;   SIGMA  =   0.10  broadening in eV -4-tet -1-fermi 0-gaus

 Electronic relaxation 2 (details)
   IALGO  =     53    algorithm
   LDIAG  =      T    sub-space diagonalisation (order eigenvalues)
   LSUBROT=      F    optimize rotation matrix (better conditioning)
   TURBO    =      0    0=normal 1=particle mesh
   IRESTART =      0    0=no restart 2=restart with 2 vectors
   NREBOOT  =      0    no. of reboots
   NMIN     =      0    reboot dimension
   EREF     =   0.00    reference energy to select bands
   IMIX   =      4    mixing-type and parameters
     AMIX     =   0.40;   BMIX     =  1.00
     AMIX_MAG =   1.60;   BMIX_MAG =  1.00
     AMIN     =   0.10
     WC   =   100.;   INIMIX=   1;  MIXPRE=   1;  MAXMIX= -45

 Intra band minimization:
   WEIMIN = 0.0000     energy-eigenvalue tresh-hold
   EBREAK =  0.16E-06  absolut break condition
   DEPER  =   0.30     relativ break condition  

   TIME   =   0.20     timestep for ELM

  volume/ion in A,a.u.               =      54.77       369.63
  Fermi-wavevector in a.u.,A,eV,Ry     =   0.701543  1.325725  6.696287  0.492163
  Thomas-Fermi vector in A             =   1.785999
 
 Write flags
   LWAVE        =      T    write WAVECAR
   LDOWNSAMPLE  =      F    k-point downsampling of WAVECAR
   LCHARG       =      T    write CHGCAR
   LVTOT        =      F    write LOCPOT, total local potential
   LVHAR        =      F    write LOCPOT, Hartree potential only
   LELF         =      F    write electronic localiz. function (ELF)
   LORBIT       =     11    0 simple, 1 ext, 2 COOP (PROOUT), +10 PAW based schemes


 Dipole corrections
   LMONO  =      F    monopole corrections only (constant potential shift)
   LDIPOL =      T    correct potential (dipole corrections)
   IDIPOL =      3    1-x, 2-y, 3-z, 4-all directions 
   EPSILON=  1.0000000 bulk dielectric constant

 Exchange correlation treatment:
   GGA     =    PE    GGA type
   LEXCH   =     8    internal setting for exchange type
   VOSKOWN=      0    Vosko Wilk Nusair interpolation
   EXXOEP  =     0    0=HF, 1=EXX-LHF (local Hartree Fock) 2=EXX OEP
   LHFCALC =     T    Hartree Fock is set to
   LSYMGRAD=     F    symmetrize gradient (conserves proper symmetry)
   PRECFOCK=normal    Normal, Fast or Accurate (Low or Medium for compatibility)
   LRHFCALC=     F    long range Hartree Fock
   LRSCOR  =     F    long range correlation only (use DFT for short range part)
   LTHOMAS =     F    Thomas Fermi screening in HF
   LMODELHF=     F    short range full HF, long range fraction AEXX
   ENCUT4O =  -1.0   cutoff for four orbital integrals eV
   LMAXFOCK=     4    L truncation for augmentation on plane wave grid
   LMAXFOCKAE=  -1    L truncation for all-electron charge restoration on plane wave grid
   NMAXFOCKAE=   1    number of basis functions for all-electron charge restoration
   LFOCKAEDFT=     F  apply the AE augmentation even for DFT
   NKREDX  =     1    reduce k-point grid by
   NKREDY  =     1    reduce k-point grid by
   NKREDZ  =     1    reduce k-point grid by
   SHIFTRED=     F    shift reduced grid of Gamma
   HFKIDENT=     F    idential grid for each k-point
   ODDONLY =     F    use only odd q-grid points
   EVENONLY=     F    use only even q-grid points
   HFALPHA =   -1.0000 decay constant for conv. correction
   MCALPHA =    0.0000 extent of test-charge in conv. correction in multipole expansion
   AEXX    =    0.2500 exact exchange contribution
   HFSCREEN=    0.2000 screening length (either q_TF or 0.3 A-1)
   HFSCREENC=   0.2000 screening length for correlation (either q_TF or 0.3 A-1)
   HFRCUT  =    0.0000 spherical cutoff for potential kernel
   ALDAX   =    0.7500 LDA exchange part
   AGGAX   =    0.7500 GGA exchange part
   ALDAC   =    1.0000 LDA correlation
   AGGAC   =    1.0000 GGA correlation
   ENCUTFOCK=  -1.0 apply spherical cutoff to Coloumb kernel
   NBANDSGWLOW=     1    first orbital included in HF term
   NBLOCK_FOCK=    64    blocking factor in FOCK_ACC
 Linear response parameters
   LEPSILON=     F    determine dielectric tensor
   LRPA    =     F    only Hartree local field effects (RPA)
   LNABLA  =     F    use nabla operator in PAW spheres
   LVEL    =     F    velocity operator in full k-point grid
   LINTERFAST=   F  fast interpolation
   KINTER  =     0    interpolate to denser k-point grid
   CSHIFT  =0.1000    complex shift for real part using Kramers Kronig
   OMEGAMAX=  -1.0    maximum frequency
   DEG_THRESHOLD= 0.2000000E-02 threshold for treating states as degnerate
   RTIME   =   -0.100 relaxation time in fs
  (WPLASMAI=    0.000 imaginary part of plasma frequency in eV, 0.658/RTIME)
   DFIELD  = 0.0000000 0.0000000 0.0000000 field for delta impulse in time
 
 Orbital magnetization related:
   ORBITALMAG=     F  switch on orbital magnetization
   LCHIMAG   =     F  perturbation theory with respect to B field
   DQ        =  0.001000  dq finite difference perturbation B field
   LLRAUG    =     F  two centre corrections for induced B field



--------------------------------------------------------------------------------------------------------


 Static calculation
 charge density and potential will be updated during run
 spin polarized calculation
 Conjugate gradient for all bands (Freysoldt, et al. PRB 79, 241103 (2009))
 perform sub-space diagonalisation
    before iterative eigenvector-optimisation
 modified Broyden-mixing scheme, WC =      100.0
 initial mixing is a Kerker type mixing with AMIX =  0.4000 and BMIX =      1.0000
 Hartree-type preconditioning will be used
 using additional bands           34
 reciprocal scheme for non local part
 use partial core corrections
 no Harris-corrections to forces 
 use gradient corrections 
 use of overlap-Matrix (Vanderbilt PP)
 Gauss-broadening in eV      SIGMA  =   0.10


--------------------------------------------------------------------------------------------------------


  energy-cutoff  :      500.00
  volume of cell :     3176.88
      direct lattice vectors                 reciprocal lattice vectors
    12.810000000  0.000000000  0.000000000     0.078064012  0.000000000  0.000000000
     0.000000000 12.400000000  0.000000000     0.000000000  0.080645161  0.000000000
     0.000000000  0.000000000 20.000000000     0.000000000  0.000000000  0.050000000

  length of vectors
    12.810000000 12.400000000 20.000000000     0.078064012  0.080645161  0.050000000


 
 old parameters found on file WAVECAR:
  energy-cutoff  :      500.00
  volume of cell :     3176.88
      direct lattice vectors                 reciprocal lattice vectors
    12.810000000  0.000000000  0.000000000     0.078064012  0.000000000  0.000000000
     0.000000000 12.400000000  0.000000000     0.000000000  0.080645161  0.000000000
     0.000000000  0.000000000 20.000000000     0.000000000  0.000000000  0.050000000

  length of vectors

 
 k-points in units of 2pi/SCALE and weight: KPOINTS created by Atomic Simulation Env
   0.01951600  0.02016129  0.00000000       0.500
  -0.01951600  0.02016129  0.00000000       0.500
 
 k-points in reciprocal lattice and weights: KPOINTS created by Atomic Simulation Env
   0.25000000  0.25000000  0.00000000       0.500
  -0.25000000  0.25000000  0.00000000       0.500
 
 position of ions in fractional coordinates (direct lattice) 
   0.22161359  0.99860333  0.49999527
   0.05456101  0.09894228  0.49997602
   0.11047787  0.99939439  0.50000633
   0.27718767  0.09645994  0.49992518
   0.22097655  0.19472368  0.49996552
   0.05572776  0.29935414  0.49999313
   0.10987787  0.19818469  0.49997442
   0.27749522  0.29193667  0.50010717
   0.06237898  0.49810169  0.50005396
   0.11673802  0.39578775  0.50011521
   0.05782909  0.69927840  0.50000546
   0.11751177  0.60101883  0.50004273
   0.27805410  0.70285167  0.50001358
   0.22308182  0.80134066  0.50001140
   0.05575335  0.89943753  0.50001844
   0.11160847  0.80006609  0.50000781
   0.27810314  0.90013867  0.50002146
   0.55551413  0.99896906  0.49990317
   0.38863406  0.09722245  0.49987425
   0.44480754  0.99879834  0.49993154
   0.61045881  0.09744452  0.49987343
   0.55549912  0.19599683  0.49997217
   0.44237115  0.19649263  0.49985781
   0.55498507  0.60785064  0.49990509
   0.39094350  0.70279230  0.49998320
   0.61204971  0.70476451  0.49978907
   0.55623972  0.80286523  0.49988643
   0.38859790  0.90035821  0.49999779
   0.44469779  0.80167728  0.49995659
   0.61192755  0.90054093  0.49994274
   0.88888431  0.99968823  0.50000554
   0.72199711  0.09913306  0.49994504
   0.77779125  0.99981231  0.49999024
   0.94315447  0.09993320  0.49996459
   0.88786169  0.20041553  0.49992846
   0.71673003  0.29806622  0.50017411
   0.77618258  0.19980849  0.49994865
   0.94302664  0.30087053  0.49996407
   0.88623609  0.40062437  0.50001008
   0.71683531  0.50387157  0.50005484
   0.77099142  0.40120152  0.50010789
   0.94742203  0.49865467  0.49999243
   0.89061307  0.59857761  0.49994830
   0.72340328  0.70114516  0.49987074
   0.77798786  0.60026549  0.49990488
   0.94595483  0.69878888  0.49998355
   0.89044940  0.79923282  0.50000710
   0.72309188  0.89981872  0.49998037
   0.77896780  0.80024123  0.49996870
   0.94465606  0.89954689  0.50002522
   0.22610064  0.38789436  0.50034417
   0.22487912  0.60648145  0.50004936
   0.38599788  0.29244495  0.49998692
   0.60945734  0.29140810  0.50046174
   0.60794749  0.51324336  0.50020321
   0.44611869  0.60538415  0.50001430
   0.33546897  0.49589555  0.50016029
   0.50238038  0.40177824  0.50239889
 
 position of ions in cartesian coordinates  (Angst):
   2.83887010 12.38268130  9.99990543
   0.69892656  1.22688429  9.99952031
   1.41522151 12.39249048 10.00012658
   3.55077406  1.19610323  9.99850368
   2.83070965  2.41457366  9.99931047
   0.71387266  3.71199129  9.99986270
   1.40753554  2.45749019  9.99948832
   3.55471378  3.62001469 10.00214333
   0.79907476  6.17646098 10.00107913
   1.49541403  4.90776811 10.00230414
   0.74079062  8.67105216 10.00010928
   1.50532574  7.45263344 10.00085453
   3.56187308  8.71536070 10.00027157
   2.85767811  9.93662419 10.00022797
   0.71420046 11.15302533 10.00036875
   1.42970454  9.92081956 10.00015611
   3.56250126 11.16171948 10.00042916
   7.11613606 12.38721631  9.99806335
   4.97840234  1.20555843  9.99748504
   5.69798461 12.38509940  9.99863073
   7.81997732  1.20831209  9.99746865
   7.11594377  2.43036069  9.99944335
   5.66677440  2.43650862  9.99715615
   7.10935872  7.53734789  9.99810173
   5.00798619  8.71462452  9.99966405
   7.84035676  8.73907995  9.99578135
   7.12543083  9.95552882  9.99772859
   4.97793914 11.16444182  9.99995582
   5.69657875  9.94079825  9.99913189
   7.83879195 11.16670758  9.99885483
  11.38660804 12.39613410 10.00011085
   9.24878300  1.22924991  9.99890071
   9.96350596 12.39767265  9.99980483
  12.08180881  1.23917173  9.99929179
  11.37350831  2.48515253  9.99856921
   9.18131172  3.69602112 10.00348223
   9.94289881  2.47762530  9.99897301
  12.08017131  3.73079458  9.99928137
  11.35268433  4.96774224 10.00020161
   9.18266031  6.24800749 10.00109685
   9.87640013  4.97489881 10.00215780
  12.13647616  6.18331795  9.99984858
  11.40875345  7.42236230  9.99896592
   9.26679602  8.69419995  9.99741476
   9.96602450  7.44329203  9.99809756
  12.11768131  8.66498213  9.99967106
  11.40665687  9.91048700 10.00014193
   9.26280696 11.15775210  9.99960730
   9.97857753  9.92299124  9.99937401
  12.10104412 11.15438145 10.00050438
   2.89634925  4.80989003 10.00688334
   2.88070150  7.52036999 10.00098716
   4.94463280  3.62631737  9.99973830
   7.80714847  3.61346041 10.00923476
   7.78780739  6.36421765 10.00406423
   5.71478047  7.50676349 10.00028590
   4.29735747  6.14910484 10.00320577
   6.43549262  4.98205018 10.04797781
 


--------------------------------------------------------------------------------------------------------


 k-point  1 :   0.2500 0.2500 0.0000  plane waves:   80679
 k-point  2 :  -0.2500 0.2500 0.0000  plane waves:   80679

 maximum and minimum number of plane-waves per node :      2549     2492

 maximum number of plane-waves:     80679
 maximum index in each direction: 
   IXMAX=   23   IYMAX=   22   IZMAX=   36
   IXMIN=  -23   IYMIN=  -22   IZMIN=  -36


 parallel 3D FFT for wavefunctions:
    minimum data exchange during FFTs selected (reduces bandwidth)
 parallel 3D FFT for charge:
    minimum data exchange during FFTs selected (reduces bandwidth)


 FFT grid for exact exchange (Hartree Fock) 
  NGX = 72; NGY = 70; NGZ =112

 
 Radii for the augmentation spheres in the non-local exchange
 for species   1 augmentation radius   0.874 (default was   0.699)
       energy cutoff for augmentation   2000.0
 for species   2 augmentation radius   0.886 (default was   0.709)
       energy cutoff for augmentation   2000.0
 for species   3 augmentation radius   1.263 (default was   1.010)
       energy cutoff for augmentation   2000.0
 for species   4 augmentation radius   1.190 (default was   0.952)
       energy cutoff for augmentation   2000.0

 real space projection operators:
  total allocation   :       2451.22 KBytes
  max/ min on nodes  :        112.28         42.47

 Maximum index for augmentation-charges in exchange           86
  SETUP_FOCK is finished

 total amount of memory used by VASP MPI-rank0   163905. kBytes
=======================================================================

   base      :      30000. kBytes
   nonl-proj :       5318. kBytes
   fftplans  :      13453. kBytes
   grid      :      34560. kBytes
   one-center:         62. kBytes
   HF        :         23. kBytes
   nonlr-proj:       1637. kBytes
   wavefun   :      78852. kBytes
 
     INWAV:  cpu time    3.6481: real time    3.6484
 Broyden mixing: mesh for mixing (old mesh)
   NGX = 47   NGY = 45   NGZ = 73
  (NGX  =192   NGY  =180   NGZ  =300)
  gives a total of 154395 points

 charge density for first step will be calculated from the start-wavefunctions


--------------------------------------------------------------------------------------------------------


 Maximum index for augmentation-charges          699 (set IRDMAX)


--------------------------------------------------------------------------------------------------------


 initial charge from wavefunction
 First call to EWALD:  gamma=   0.121
 Maximum number of real-space cells 3x 3x 2
 Maximum number of reciprocal cells 2x 2x 4

    FEWALD:  cpu time    0.0032: real time    0.0032


--------------------------------------- Iteration      1(   1)  ---------------------------------------


    POTLOK:  cpu time    1.3044: real time    1.3066
    SETDIJ:  cpu time    2.0964: real time    2.0969
    TRIAL :  cpu time  545.4750: real time  545.5056
    CORREC:  cpu time    0.0023: real time    0.0025
    CHARGE:  cpu time    1.6943: real time    1.6944
    --------------------------------------------
      LOOP:  cpu time  550.5887: real time  550.6251

 eigenvalue-minimisations  :     0
 total energy-change (2. order) :-0.5999895E+03  (-0.3793937E+00)
 number of electron     249.9999998 magnetization       3.4343378
 augmentation part       18.3594694 magnetization       2.1528826

 DIPCOR: dipole corrections for dipol
 direction  3 min pos     1,
 dipolmoment           0.000000      0.000000     -0.005256 electrons x Angstroem
 Tr[quadrupol]     -6879.061102

 energy correction for charged system         0.000000 eV
 dipol+quadrupol energy correction           -0.000001 eV
 added-field ion interaction          0.000186 eV  (added to PSCEN)


 Free energy of the ion-electron system (eV)
  ---------------------------------------------------
  alpha Z        PSCENC =       108.15812097
  Ewald energy   TEWEN  =     41164.20814065
  -Hartree energ DENC   =    -50796.63982632
  -exchange      EXHF   =       579.97373001
  -V(xc)+E(xc)   XCENC  =       669.23063818
  PAW double counting   =     27649.25523208   -27854.18888123
  entropy T*S    EENTRO =        -0.04560833
  eigenvalues    EBANDS =     -3296.90626415
  atomic energy  EATOM  =     11176.96681972
  ---------------------------------------------------
  free energy    TOTEN  =      -599.98952553 eV

  energy without entropy =     -599.94391720  energy(sigma->0) =     -599.96672136
  exchange ACFDT corr.  =        -0.09013625  see jH, gK, PRB 81, 115126


--------------------------------------------------------------------------------------------------------




--------------------------------------- Iteration      1(   2)  ---------------------------------------


    POTLOK:  cpu time    1.3136: real time    1.3135
    SETDIJ:  cpu time    2.0920: real time    2.0920
    TRIAL :  cpu time  546.2211: real time  546.2835
    CORREC:  cpu time    0.0024: real time    0.0026
    CHARGE:  cpu time    1.6883: real time    1.6886
    --------------------------------------------
      LOOP:  cpu time  551.3196: real time  551.3824

 eigenvalue-minimisations  :     0
 total energy-change (2. order) :-0.3131495E+00  (-0.3206242E+00)
 number of electron     249.9999998 magnetization       3.4800402
 augmentation part       18.3673207 magnetization       2.1880624

 DIPCOR: dipole corrections for dipol
 direction  3 min pos     1,
 dipolmoment           0.000000      0.000000     -0.006471 electrons x Angstroem
 Tr[quadrupol]     -6878.891514

 energy correction for charged system         0.000000 eV
 dipol+quadrupol energy correction           -0.000001 eV
 added-field ion interaction          0.000229 eV  (added to PSCEN)


 Free energy of the ion-electron system (eV)
  ---------------------------------------------------
  alpha Z        PSCENC =       108.15816348
  Ewald energy   TEWEN  =     41164.20814065
  -Hartree energ DENC   =    -50785.09636771
  -exchange      EXHF   =       579.85405569
  -V(xc)+E(xc)   XCENC  =       668.96210215
  PAW double counting   =     27777.12891099   -27983.37543490
  entropy T*S    EENTRO =        -0.04340278
  eigenvalues    EBANDS =     -3307.06345679
  atomic energy  EATOM  =     11176.96681972
  ---------------------------------------------------
  free energy    TOTEN  =      -600.30267504 eV

  energy without entropy =     -600.25927226  energy(sigma->0) =     -600.28097365
  exchange ACFDT corr.  =        -0.07777049  see jH, gK, PRB 81, 115126


--------------------------------------------------------------------------------------------------------




--------------------------------------- Iteration      1(   3)  ---------------------------------------


    POTLOK:  cpu time    1.3165: real time    1.3165
    SETDIJ:  cpu time    2.0949: real time    2.0953
    TRIAL :  cpu time  547.0642: real time  547.1535
    CORREC:  cpu time    0.0024: real time    0.0026
    CHARGE:  cpu time    1.6854: real time    1.6858
    --------------------------------------------
      LOOP:  cpu time  552.1656: real time  552.2578

 eigenvalue-minimisations  :     0
 total energy-change (2. order) :-0.2433433E+00  (-0.1767931E+00)
 number of electron     249.9999998 magnetization       3.5371980
 augmentation part       18.3608722 magnetization       2.2220948

 DIPCOR: dipole corrections for dipol
 direction  3 min pos     1,
 dipolmoment           0.000000      0.000000     -0.007581 electrons x Angstroem
 Tr[quadrupol]     -6878.718494

 energy correction for charged system         0.000000 eV
 dipol+quadrupol energy correction           -0.000002 eV
 added-field ion interaction          0.000268 eV  (added to PSCEN)


 Free energy of the ion-electron system (eV)
  ---------------------------------------------------
  alpha Z        PSCENC =       108.15820226
  Ewald energy   TEWEN  =     41164.20814065
  -Hartree energ DENC   =    -50772.15087665
  -exchange      EXHF   =       579.76333886
  -V(xc)+E(xc)   XCENC  =       668.65948322
  PAW double counting   =     27939.58427719   -28146.57716909
  entropy T*S    EENTRO =        -0.04044987
  eigenvalues    EBANDS =     -3319.11483174
  atomic energy  EATOM  =     11176.96681972
  ---------------------------------------------------
  free energy    TOTEN  =      -600.54601838 eV

  energy without entropy =     -600.50556851  energy(sigma->0) =     -600.52579344
  exchange ACFDT corr.  =        -0.06452390  see jH, gK, PRB 81, 115126


--------------------------------------------------------------------------------------------------------




--------------------------------------- Iteration      1(   4)  ---------------------------------------


    POTLOK:  cpu time    1.3206: real time    1.3206
    SETDIJ:  cpu time    2.0915: real time    2.0918
    TRIAL :  cpu time  547.4880: real time  547.5846
    CORREC:  cpu time    0.0022: real time    0.0024
    CHARGE:  cpu time    1.6866: real time    1.6870
    --------------------------------------------
      LOOP:  cpu time  552.5910: real time  552.6884

 eigenvalue-minimisations  :     0
 total energy-change (2. order) :-0.1332209E+00  (-0.9504139E-01)
 number of electron     249.9999998 magnetization       3.5947514
 augmentation part       18.3554916 magnetization       2.2489362

 DIPCOR: dipole corrections for dipol
 direction  3 min pos     1,
 dipolmoment           0.000000      0.000000     -0.008036 electrons x Angstroem
 Tr[quadrupol]     -6878.640748

 energy correction for charged system         0.000000 eV
 dipol+quadrupol energy correction           -0.000002 eV
 added-field ion interaction          0.000284 eV  (added to PSCEN)


 Free energy of the ion-electron system (eV)
  ---------------------------------------------------
  alpha Z        PSCENC =       108.15821813
  Ewald energy   TEWEN  =     41164.20814065
  -Hartree energ DENC   =    -50764.16096670
  -exchange      EXHF   =       579.80867288
  -V(xc)+E(xc)   XCENC  =       668.49045668
  PAW double counting   =     28079.75340418   -28286.30790677
  entropy T*S    EENTRO =        -0.03719144
  eigenvalues    EBANDS =     -3327.55562812
  atomic energy  EATOM  =     11176.96681972
  ---------------------------------------------------
  free energy    TOTEN  =      -600.67923923 eV

  energy without entropy =     -600.64204780  energy(sigma->0) =     -600.66064351
  exchange ACFDT corr.  =        -0.05402748  see jH, gK, PRB 81, 115126


--------------------------------------------------------------------------------------------------------




--------------------------------------- Iteration      1(   5)  ---------------------------------------


    POTLOK:  cpu time    1.3210: real time    1.3211
    SETDIJ:  cpu time    2.1227: real time    2.1230
    TRIAL :  cpu time  546.7868: real time  546.8651
    CORREC:  cpu time    0.0022: real time    0.0024
    CHARGE:  cpu time    1.6864: real time    1.6867
    --------------------------------------------
      LOOP:  cpu time  551.9214: real time  552.0005

 eigenvalue-minimisations  :     0
 total energy-change (2. order) :-0.7299884E-01  (-0.5362155E-01)
 number of electron     249.9999998 magnetization       3.6454216
 augmentation part       18.3615333 magnetization       2.2678622

 DIPCOR: dipole corrections for dipol
 direction  3 min pos     1,
 dipolmoment           0.000000      0.000000     -0.008257 electrons x Angstroem
 Tr[quadrupol]     -6878.658687

 energy correction for charged system         0.000000 eV
 dipol+quadrupol energy correction           -0.000002 eV
 added-field ion interaction          0.000292 eV  (added to PSCEN)


 Free energy of the ion-electron system (eV)
  ---------------------------------------------------
  alpha Z        PSCENC =       108.15822584
  Ewald energy   TEWEN  =     41164.20814065
  -Hartree energ DENC   =    -50763.07930280
  -exchange      EXHF   =       579.98696561
  -V(xc)+E(xc)   XCENC  =       668.49430780
  PAW double counting   =     28182.68801539   -28388.45319882
  entropy T*S    EENTRO =        -0.03405345
  eigenvalues    EBANDS =     -3329.68502003
  atomic energy  EATOM  =     11176.96681972
  ---------------------------------------------------
  free energy    TOTEN  =      -600.75223807 eV

  energy without entropy =     -600.71818462  energy(sigma->0) =     -600.73521135
  exchange ACFDT corr.  =        -0.04574893  see jH, gK, PRB 81, 115126


--------------------------------------------------------------------------------------------------------




--------------------------------------- Iteration      1(   6)  ---------------------------------------


    POTLOK:  cpu time    1.3205: real time    1.3208
    SETDIJ:  cpu time    2.0953: real time    2.0954
    TRIAL :  cpu time  547.1844: real time  547.2945
    CORREC:  cpu time    0.0022: real time    0.0024
    CHARGE:  cpu time    1.6824: real time    1.6827
    --------------------------------------------
      LOOP:  cpu time  552.2904: real time  552.4013

 eigenvalue-minimisations  :     0
 total energy-change (2. order) :-0.4326536E-01  (-0.3399893E-01)
 number of electron     249.9999998 magnetization       3.6902468
 augmentation part       18.3729161 magnetization       2.2821582

 DIPCOR: dipole corrections for dipol
 direction  3 min pos     1,
 dipolmoment           0.000000      0.000000     -0.008567 electrons x Angstroem
 Tr[quadrupol]     -6878.717952

 energy correction for charged system         0.000000 eV
 dipol+quadrupol energy correction           -0.000002 eV
 added-field ion interaction          0.000303 eV  (added to PSCEN)


 Free energy of the ion-electron system (eV)
  ---------------------------------------------------
  alpha Z        PSCENC =       108.15823663
  Ewald energy   TEWEN  =     41164.20814065
  -Hartree energ DENC   =    -50766.53265655
  -exchange      EXHF   =       580.21920760
  -V(xc)+E(xc)   XCENC  =       668.60808602
  PAW double counting   =     28251.08027404   -28456.55588756
  entropy T*S    EENTRO =        -0.03105639
  eigenvalues    EBANDS =     -3326.91367054
  atomic energy  EATOM  =     11176.96681972
  ---------------------------------------------------
  free energy    TOTEN  =      -600.79550343 eV

  energy without entropy =     -600.76444704  energy(sigma->0) =     -600.77997524
  exchange ACFDT corr.  =        -0.03898524  see jH, gK, PRB 81, 115126


--------------------------------------------------------------------------------------------------------




--------------------------------------- Iteration      1(   7)  ---------------------------------------


    POTLOK:  cpu time    1.3163: real time    1.3166
    SETDIJ:  cpu time    2.0914: real time    2.0917
    TRIAL :  cpu time  546.2277: real time  546.2920
    CORREC:  cpu time    0.0022: real time    0.0024
    CHARGE:  cpu time    1.6849: real time    1.6848
    --------------------------------------------
      LOOP:  cpu time  551.3245: real time  551.3895

 eigenvalue-minimisations  :     0
 total energy-change (2. order) :-0.2841454E-01  (-0.2192322E-01)
 number of electron     249.9999998 magnetization       3.7302457
 augmentation part       18.3826371 magnetization       2.2942973

 DIPCOR: dipole corrections for dipol
 direction  3 min pos     1,
 dipolmoment           0.000000      0.000000     -0.008912 electrons x Angstroem
 Tr[quadrupol]     -6878.772531

 energy correction for charged system         0.000000 eV
 dipol+quadrupol energy correction           -0.000002 eV
 added-field ion interaction          0.000315 eV  (added to PSCEN)


 Free energy of the ion-electron system (eV)
  ---------------------------------------------------
  alpha Z        PSCENC =       108.15824865
  Ewald energy   TEWEN  =     41164.20814065
  -Hartree energ DENC   =    -50770.79174280
  -exchange      EXHF   =       580.42421510
  -V(xc)+E(xc)   XCENC  =       668.74168457
  PAW double counting   =     28292.39911885   -28498.02598193
  entropy T*S    EENTRO =        -0.02819586
  eigenvalues    EBANDS =     -3322.87336439
  atomic energy  EATOM  =     11176.96681972
  ---------------------------------------------------
  free energy    TOTEN  =      -600.82391797 eV

  energy without entropy =     -600.79572211  energy(sigma->0) =     -600.80982004
  exchange ACFDT corr.  =        -0.03335165  see jH, gK, PRB 81, 115126


--------------------------------------------------------------------------------------------------------




--------------------------------------- Iteration      1(   8)  ---------------------------------------


    POTLOK:  cpu time    1.3130: real time    1.3133
    SETDIJ:  cpu time    2.0952: real time    2.0952
    TRIAL :  cpu time  547.1087: real time  547.2145
    CORREC:  cpu time    0.0023: real time    0.0023
    CHARGE:  cpu time    1.6846: real time    1.6853
    --------------------------------------------
      LOOP:  cpu time  552.2057: real time  552.3125

 eigenvalue-minimisations  :     0
 total energy-change (2. order) :-0.1861620E-01  (-0.1435493E-01)
 number of electron     249.9999998 magnetization       3.7653320
 augmentation part       18.3887777 magnetization       2.3052484

 DIPCOR: dipole corrections for dipol
 direction  3 min pos     1,
 dipolmoment           0.000000      0.000000     -0.009197 electrons x Angstroem
 Tr[quadrupol]     -6878.804734

 energy correction for charged system         0.000000 eV
 dipol+quadrupol energy correction           -0.000002 eV
 added-field ion interaction          0.000325 eV  (added to PSCEN)


 Free energy of the ion-electron system (eV)
  ---------------------------------------------------
  alpha Z        PSCENC =       108.15825857
  Ewald energy   TEWEN  =     41164.20814065
  -Hartree energ DENC   =    -50773.68794686
  -exchange      EXHF   =       580.56487613
  -V(xc)+E(xc)   XCENC  =       668.84078541
  PAW double counting   =     28314.68618233   -28520.55245369
  entropy T*S    EENTRO =        -0.02552868
  eigenvalues    EBANDS =     -3319.99900057
  atomic energy  EATOM  =     11176.96681972
  ---------------------------------------------------
  free energy    TOTEN  =      -600.84253417 eV

  energy without entropy =     -600.81700549  energy(sigma->0) =     -600.82976983
  exchange ACFDT corr.  =        -0.02860885  see jH, gK, PRB 81, 115126


--------------------------------------------------------------------------------------------------------




--------------------------------------- Iteration      1(   9)  ---------------------------------------


    POTLOK:  cpu time    1.3091: real time    1.3094
    SETDIJ:  cpu time    2.0921: real time    2.0923
    TRIAL :  cpu time  547.0183: real time  547.1411
    CORREC:  cpu time    0.0022: real time    0.0025
    CHARGE:  cpu time    1.6843: real time    1.6847
    --------------------------------------------
      LOOP:  cpu time  552.1083: real time  552.2322

 eigenvalue-minimisations  :     0
 total energy-change (2. order) :-0.1251846E-01  (-0.1012315E-01)
 number of electron     249.9999998 magnetization       3.7960922
 augmentation part       18.3915468 magnetization       2.3156098

 DIPCOR: dipole corrections for dipol
 direction  3 min pos     1,
 dipolmoment           0.000000      0.000000     -0.009378 electrons x Angstroem
 Tr[quadrupol]     -6878.817228

 energy correction for charged system         0.000000 eV
 dipol+quadrupol energy correction           -0.000003 eV
 added-field ion interaction          0.000331 eV  (added to PSCEN)


 Free energy of the ion-electron system (eV)
  ---------------------------------------------------
  alpha Z        PSCENC =       108.15826487
  Ewald energy   TEWEN  =     41164.20814065
  -Hartree energ DENC   =    -50774.94407126
  -exchange      EXHF   =       580.64517257
  -V(xc)+E(xc)   XCENC  =       668.89574656
  PAW double counting   =     28325.14733042   -28531.14629296
  entropy T*S    EENTRO =        -0.02305554
  eigenvalues    EBANDS =     -3318.76063451
  atomic energy  EATOM  =     11176.96681972
  ---------------------------------------------------
  free energy    TOTEN  =      -600.85505263 eV

  energy without entropy =     -600.83199709  energy(sigma->0) =     -600.84352486
  exchange ACFDT corr.  =        -0.02461355  see jH, gK, PRB 81, 115126


--------------------------------------------------------------------------------------------------------




--------------------------------------- Iteration      1(  10)  ---------------------------------------


    POTLOK:  cpu time    1.3081: real time    1.3081
    SETDIJ:  cpu time    2.0953: real time    2.0956
    TRIAL :  cpu time  548.3383: real time  548.4307
    CORREC:  cpu time    0.0023: real time    0.0025
    CHARGE:  cpu time    1.6868: real time    1.6868
    --------------------------------------------
      LOOP:  cpu time  553.4332: real time  553.5285

 eigenvalue-minimisations  :     0
 total energy-change (2. order) :-0.9013708E-02  (-0.7382440E-02)
 number of electron     249.9999998 magnetization       3.8232532
 augmentation part       18.3923609 magnetization       2.3256414

 DIPCOR: dipole corrections for dipol
 direction  3 min pos     1,
 dipolmoment           0.000000      0.000000     -0.009461 electrons x Angstroem
 Tr[quadrupol]     -6878.818678

 energy correction for charged system         0.000000 eV
 dipol+quadrupol energy correction           -0.000003 eV
 added-field ion interaction          0.000334 eV  (added to PSCEN)


 Free energy of the ion-electron system (eV)
  ---------------------------------------------------
  alpha Z        PSCENC =       108.15826777
  Ewald energy   TEWEN  =     41164.20814065
  -Hartree energ DENC   =    -50775.07753988
  -exchange      EXHF   =       580.68529445
  -V(xc)+E(xc)   XCENC  =       668.91894982
  PAW double counting   =     28328.98311267   -28534.97571148
  entropy T*S    EENTRO =        -0.02075309
  eigenvalues    EBANDS =     -3318.70834452
  atomic energy  EATOM  =     11176.96681972
  ---------------------------------------------------
  free energy    TOTEN  =      -600.86406634 eV

  energy without entropy =     -600.84331325  energy(sigma->0) =     -600.85368979
  exchange ACFDT corr.  =        -0.02124308  see jH, gK, PRB 81, 115126


--------------------------------------------------------------------------------------------------------




--------------------------------------- Iteration      1(  11)  ---------------------------------------


    POTLOK:  cpu time    1.3047: real time    1.3048
    SETDIJ:  cpu time    2.0954: real time    2.0956
    TRIAL :  cpu time  548.7114: real time  548.7957
    CORREC:  cpu time    0.0023: real time    0.0025
    CHARGE:  cpu time    1.6835: real time    1.6838
    --------------------------------------------
      LOOP:  cpu time  553.7995: real time  553.8847

 eigenvalue-minimisations  :     0
 total energy-change (2. order) :-0.6630644E-02  (-0.5442068E-02)
 number of electron     249.9999998 magnetization       3.8470280
 augmentation part       18.3930655 magnetization       2.3351655

 DIPCOR: dipole corrections for dipol
 direction  3 min pos     1,
 dipolmoment           0.000000      0.000000     -0.009485 electrons x Angstroem
 Tr[quadrupol]     -6878.816669

 energy correction for charged system         0.000000 eV
 dipol+quadrupol energy correction           -0.000003 eV
 added-field ion interaction          0.000335 eV  (added to PSCEN)


 Free energy of the ion-electron system (eV)
  ---------------------------------------------------
  alpha Z        PSCENC =       108.15826858
  Ewald energy   TEWEN  =     41164.20814065
  -Hartree energ DENC   =    -50774.77339735
  -exchange      EXHF   =       580.70663779
  -V(xc)+E(xc)   XCENC  =       668.92862268
  PAW double counting   =     28329.60659410   -28535.53489260
  entropy T*S    EENTRO =        -0.01863233
  eigenvalues    EBANDS =     -3319.11673747
  atomic energy  EATOM  =     11176.96681972
  ---------------------------------------------------
  free energy    TOTEN  =      -600.87069698 eV

  energy without entropy =     -600.85206465  energy(sigma->0) =     -600.86138081
  exchange ACFDT corr.  =        -0.01838504  see jH, gK, PRB 81, 115126


--------------------------------------------------------------------------------------------------------




--------------------------------------- Iteration      1(  12)  ---------------------------------------


    POTLOK:  cpu time    1.3035: real time    1.3040
    SETDIJ:  cpu time    2.0929: real time    2.0931
    TRIAL :  cpu time  547.7804: real time  547.9190
    CORREC:  cpu time    0.0023: real time    0.0025
    CHARGE:  cpu time    1.6842: real time    1.6844
    --------------------------------------------
      LOOP:  cpu time  552.8656: real time  553.0053

 eigenvalue-minimisations  :     0
 total energy-change (2. order) :-0.4968584E-02  (-0.4179491E-02)
 number of electron     249.9999998 magnetization       3.8674928
 augmentation part       18.3942481 magnetization       2.3439298

 DIPCOR: dipole corrections for dipol
 direction  3 min pos     1,
 dipolmoment           0.000000      0.000000     -0.009498 electrons x Angstroem
 Tr[quadrupol]     -6878.815452

 energy correction for charged system         0.000000 eV
 dipol+quadrupol energy correction           -0.000003 eV
 added-field ion interaction          0.000336 eV  (added to PSCEN)


 Free energy of the ion-electron system (eV)
  ---------------------------------------------------
  alpha Z        PSCENC =       108.15826903
  Ewald energy   TEWEN  =     41164.20814065
  -Hartree energ DENC   =    -50774.54469326
  -exchange      EXHF   =       580.72375003
  -V(xc)+E(xc)   XCENC  =       668.93818605
  PAW double counting   =     28329.23666223   -28535.14064556
  entropy T*S    EENTRO =        -0.01671580
  eigenvalues    EBANDS =     -3319.40352212
  atomic energy  EATOM  =     11176.96681972
  ---------------------------------------------------
  free energy    TOTEN  =      -600.87566557 eV

  energy without entropy =     -600.85894976  energy(sigma->0) =     -600.86730766
  exchange ACFDT corr.  =        -0.01595879  see jH, gK, PRB 81, 115126


--------------------------------------------------------------------------------------------------------




--------------------------------------- Iteration      1(  13)  ---------------------------------------


    POTLOK:  cpu time    1.3055: real time    1.3059
    SETDIJ:  cpu time    2.0925: real time    2.0927
    TRIAL :  cpu time  547.7246: real time  547.8348
    CORREC:  cpu time    0.0023: real time    0.0025
    CHARGE:  cpu time    1.6805: real time    1.6807
    --------------------------------------------
      LOOP:  cpu time  552.8095: real time  552.9222

 eigenvalue-minimisations  :     0
 total energy-change (2. order) :-0.3874081E-02  (-0.3320419E-02)
 number of electron     249.9999998 magnetization       3.8849401
 augmentation part       18.3954532 magnetization       2.3519552

 DIPCOR: dipole corrections for dipol
 direction  3 min pos     1,
 dipolmoment           0.000000      0.000000     -0.009518 electrons x Angstroem
 Tr[quadrupol]     -6878.815855

 energy correction for charged system         0.000000 eV
 dipol+quadrupol energy correction           -0.000003 eV
 added-field ion interaction          0.000336 eV  (added to PSCEN)


 Free energy of the ion-electron system (eV)
  ---------------------------------------------------
  alpha Z        PSCENC =       108.15826975
  Ewald energy   TEWEN  =     41164.20814065
  -Hartree energ DENC   =    -50774.51237208
  -exchange      EXHF   =       580.74097634
  -V(xc)+E(xc)   XCENC  =       668.95060839
  PAW double counting   =     28329.02386956   -28534.95672853
  entropy T*S    EENTRO =        -0.01500540
  eigenvalues    EBANDS =     -3319.44240765
  atomic energy  EATOM  =     11176.96681972
  ---------------------------------------------------
  free energy    TOTEN  =      -600.87953965 eV

  energy without entropy =     -600.86453425  energy(sigma->0) =     -600.87203695
  exchange ACFDT corr.  =        -0.01390637  see jH, gK, PRB 81, 115126


--------------------------------------------------------------------------------------------------------




--------------------------------------- Iteration      1(  14)  ---------------------------------------


    POTLOK:  cpu time    1.2995: real time    1.2998
    SETDIJ:  cpu time    2.0861: real time    2.0864
    TRIAL :  cpu time  547.9838: real time  548.0763
    CORREC:  cpu time    0.0023: real time    0.0025
    CHARGE:  cpu time    1.6785: real time    1.6785
    --------------------------------------------
      LOOP:  cpu time  553.0522: real time  553.1455

 eigenvalue-minimisations  :     0
 total energy-change (2. order) :-0.3111747E-02  (-0.2717248E-02)
 number of electron     249.9999998 magnetization       3.8997794
 augmentation part       18.3961579 magnetization       2.3593890

 DIPCOR: dipole corrections for dipol
 direction  3 min pos     1,
 dipolmoment           0.000000      0.000000     -0.009538 electrons x Angstroem
 Tr[quadrupol]     -6878.817044

 energy correction for charged system         0.000000 eV
 dipol+quadrupol energy correction           -0.000003 eV
 added-field ion interaction          0.000337 eV  (added to PSCEN)


 Free energy of the ion-electron system (eV)
  ---------------------------------------------------
  alpha Z        PSCENC =       108.15827043
  Ewald energy   TEWEN  =     41164.20814065
  -Hartree energ DENC   =    -50774.56545824
  -exchange      EXHF   =       580.75725735
  -V(xc)+E(xc)   XCENC  =       668.96338008
  PAW double counting   =     28329.35350040   -28535.32965418
  entropy T*S    EENTRO =        -0.01348749
  eigenvalues    EBANDS =     -3319.37990221
  atomic energy  EATOM  =     11176.96681972
  ---------------------------------------------------
  free energy    TOTEN  =      -600.88265139 eV

  energy without entropy =     -600.86916391  energy(sigma->0) =     -600.87590765
  exchange ACFDT corr.  =        -0.01217465  see jH, gK, PRB 81, 115126


--------------------------------------------------------------------------------------------------------




--------------------------------------- Iteration      1(  15)  ---------------------------------------


    POTLOK:  cpu time    1.2960: real time    1.2963
    SETDIJ:  cpu time    2.0919: real time    2.0919
    TRIAL :  cpu time  548.3161: real time  548.3982
    CORREC:  cpu time    0.0022: real time    0.0024
    CHARGE:  cpu time    1.6843: real time    1.6843
    --------------------------------------------
      LOOP:  cpu time  553.3932: real time  553.4758

 eigenvalue-minimisations  :     0
 total energy-change (2. order) :-0.2574352E-02  (-0.2300357E-02)
 number of electron     249.9999998 magnetization       3.9123549
 augmentation part       18.3962944 magnetization       2.3663442

 DIPCOR: dipole corrections for dipol
 direction  3 min pos     1,
 dipolmoment           0.000000      0.000000     -0.009545 electrons x Angstroem
 Tr[quadrupol]     -6878.818121

 energy correction for charged system         0.000000 eV
 dipol+quadrupol energy correction           -0.000003 eV
 added-field ion interaction          0.000337 eV  (added to PSCEN)


 Free energy of the ion-electron system (eV)
  ---------------------------------------------------
  alpha Z        PSCENC =       108.15827067
  Ewald energy   TEWEN  =     41164.20814065
  -Hartree energ DENC   =    -50774.58702345
  -exchange      EXHF   =       580.77116952
  -V(xc)+E(xc)   XCENC  =       668.97418892
  PAW double counting   =     28330.21445226   -28536.21762973
  entropy T*S    EENTRO =        -0.01214959
  eigenvalues    EBANDS =     -3319.36012682
  atomic energy  EATOM  =     11176.96681972
  ---------------------------------------------------
  free energy    TOTEN  =      -600.88522575 eV

  energy without entropy =     -600.87307615  energy(sigma->0) =     -600.87915095
  exchange ACFDT corr.  =        -0.01071362  see jH, gK, PRB 81, 115126


--------------------------------------------------------------------------------------------------------




--------------------------------------- Iteration      1(  16)  ---------------------------------------


    POTLOK:  cpu time    1.2965: real time    1.2968
    SETDIJ:  cpu time    2.1216: real time    2.1215
    TRIAL :  cpu time  548.0485: real time  548.1001
    CORREC:  cpu time    0.0022: real time    0.0024
    CHARGE:  cpu time    1.6788: real time    1.6790
    --------------------------------------------
      LOOP:  cpu time  553.1499: real time  553.2021

 eigenvalue-minimisations  :     0
 total energy-change (2. order) :-0.2199500E-02  (-0.2003574E-02)
 number of electron     249.9999998 magnetization       3.9229603
 augmentation part       18.3961336 magnetization       2.3728584

 DIPCOR: dipole corrections for dipol
 direction  3 min pos     1,
 dipolmoment           0.000000      0.000000     -0.009536 electrons x Angstroem
 Tr[quadrupol]     -6878.818693

 energy correction for charged system         0.000000 eV
 dipol+quadrupol energy correction           -0.000003 eV
 added-field ion interaction          0.000337 eV  (added to PSCEN)


 Free energy of the ion-electron system (eV)
  ---------------------------------------------------
  alpha Z        PSCENC =       108.15827036
  Ewald energy   TEWEN  =     41164.20814065
  -Hartree energ DENC   =    -50774.54149836
  -exchange      EXHF   =       580.78257641
  -V(xc)+E(xc)   XCENC  =       668.98258589
  PAW double counting   =     28331.40770654   -28537.41593969
  entropy T*S    EENTRO =        -0.01097983
  eigenvalues    EBANDS =     -3319.42393717
  atomic energy  EATOM  =     11176.96681972
  ---------------------------------------------------
  free energy    TOTEN  =      -600.88742525 eV

  energy without entropy =     -600.87644541  energy(sigma->0) =     -600.88193533
  exchange ACFDT corr.  =        -0.00948194  see jH, gK, PRB 81, 115126


--------------------------------------------------------------------------------------------------------




--------------------------------------- Iteration      1(  17)  ---------------------------------------


    POTLOK:  cpu time    1.2973: real time    1.2976
    SETDIJ:  cpu time    2.0859: real time    2.0860
    TRIAL :  cpu time  548.0821: real time  548.1681
    CORREC:  cpu time    0.0022: real time    0.0024
    CHARGE:  cpu time    1.6802: real time    1.6805
    --------------------------------------------
      LOOP:  cpu time  553.1497: real time  553.2365

 eigenvalue-minimisations  :     0
 total energy-change (2. order) :-0.1929839E-02  (-0.1785667E-02)
 number of electron     249.9999998 magnetization       3.9318902
 augmentation part       18.3959367 magnetization       2.3789720

 DIPCOR: dipole corrections for dipol
 direction  3 min pos     1,
 dipolmoment           0.000000      0.000000     -0.009517 electrons x Angstroem
 Tr[quadrupol]     -6878.818762

 energy correction for charged system         0.000000 eV
 dipol+quadrupol energy correction           -0.000003 eV
 added-field ion interaction          0.000336 eV  (added to PSCEN)


 Free energy of the ion-electron system (eV)
  ---------------------------------------------------
  alpha Z        PSCENC =       108.15826972
  Ewald energy   TEWEN  =     41164.20814065
  -Hartree energ DENC   =    -50774.45396299
  -exchange      EXHF   =       580.79221581
  -V(xc)+E(xc)   XCENC  =       668.98941725
  PAW double counting   =     28332.70414091   -28538.70754778
  entropy T*S    EENTRO =        -0.00996188
  eigenvalues    EBANDS =     -3319.53586853
  atomic energy  EATOM  =     11176.96681972
  ---------------------------------------------------
  free energy    TOTEN  =      -600.88935509 eV

  energy without entropy =     -600.87939321  energy(sigma->0) =     -600.88437415
  exchange ACFDT corr.  =        -0.00844553  see jH, gK, PRB 81, 115126


--------------------------------------------------------------------------------------------------------




--------------------------------------- Iteration      1(  18)  ---------------------------------------


    POTLOK:  cpu time    1.2964: real time    1.2967
    SETDIJ:  cpu time    2.0857: real time    2.0857
    TRIAL :  cpu time  546.7643: real time  546.8522
    CORREC:  cpu time    0.0021: real time    0.0023
    CHARGE:  cpu time    1.6800: real time    1.6800
    --------------------------------------------
      LOOP:  cpu time  551.8315: real time  552.0539

 eigenvalue-minimisations  :     0
 total energy-change (2. order) :-0.1731692E-02  (-0.1624803E-02)
 number of electron     249.9999998 magnetization       3.9394231
 augmentation part       18.3957553 magnetization       2.3847604

 DIPCOR: dipole corrections for dipol
 direction  3 min pos     1,
 dipolmoment           0.000000      0.000000     -0.009498 electrons x Angstroem
 Tr[quadrupol]     -6878.818522

 energy correction for charged system         0.000000 eV
 dipol+quadrupol energy correction           -0.000003 eV
 added-field ion interaction          0.000336 eV  (added to PSCEN)


 Free energy of the ion-electron system (eV)
  ---------------------------------------------------
  alpha Z        PSCENC =       108.15826905
  Ewald energy   TEWEN  =     41164.20814065
  -Hartree energ DENC   =    -50774.36066740
  -exchange      EXHF   =       580.80094834
  -V(xc)+E(xc)   XCENC  =       668.99577975
  PAW double counting   =     28333.94938534   -28539.95192493
  entropy T*S    EENTRO =        -0.00907707
  eigenvalues    EBANDS =     -3319.64787543
[...]
  augment    43.53438    50.46920    51.12027     0.81369     0.01149     0.20148
  Kinetic  3622.66704  3712.34698  4219.04867    14.04538    -0.22020     0.37363
  Fock     -390.09894  -395.81285  -367.90510     0.45675    -0.03543    -0.18829
  -------------------------------------------------------------------------------------
  Total     -54.94624   -15.94842    -0.52507     3.58125    -0.05103     0.04238
  in kB     -27.71071    -8.04317    -0.26481     1.80611    -0.02574     0.02137
  external pressure =      -12.01 kB  Pullay stress =        0.00 kB


 VOLUME and BASIS-vectors are now :
 -----------------------------------------------------------------------------
  energy-cutoff  :      500.00
  volume of cell :     3176.88
      direct lattice vectors                 reciprocal lattice vectors
    12.810000000  0.000000000  0.000000000     0.078064012  0.000000000  0.000000000
     0.000000000 12.400000000  0.000000000     0.000000000  0.080645161  0.000000000
     0.000000000  0.000000000 20.000000000     0.000000000  0.000000000  0.050000000

  length of vectors
    12.810000000 12.400000000 20.000000000     0.078064012  0.080645161  0.050000000


 FORCES acting on ions:
    Electron-Ion                     Ewald-Force                    Non-Local-Force
 -----------------------------------------------------------------------------------------------
   0.122E+02 0.661E+01 0.128E+00   -.123E+02 -.680E+01 -.128E+00   0.123E+00 0.388E+00 -.239E-02
   0.903E+01 0.443E+01 0.318E+00   -.921E+01 -.462E+01 -.319E+00   0.287E+00 0.206E+00 0.839E-03
   0.919E+01 0.114E+01 0.650E-01   -.931E+01 -.120E+01 -.648E-01   0.816E-01 0.623E-01 -.119E-02
   0.911E+01 0.144E+02 0.829E+00   -.922E+01 -.152E+02 -.837E+00   -.378E-02 0.543E+00 0.822E-02
   0.263E+02 0.223E+02 0.896E+00   -.271E+02 -.235E+02 -.890E+00   0.898E+00 0.132E+01 -.524E-02
   0.236E+02 0.811E+00 0.552E+00   -.242E+02 -.522E+00 -.553E+00   0.792E+00 -.119E+00 0.369E-02
   0.191E+02 0.485E+01 0.506E+00   -.199E+02 -.485E+01 -.504E+00   0.671E+00 -.186E-01 -.168E-02
   0.323E+02 0.365E+02 0.629E+00   -.355E+02 -.405E+02 -.634E+00   0.288E+01 0.386E+01 0.171E-01
   0.183E+02 -.261E+01 0.146E+00   -.183E+02 0.282E+01 -.150E+00   0.211E+00 -.375E-01 0.529E-02
   0.422E+02 -.156E+02 0.530E-01   -.470E+02 0.160E+02 -.660E-01   0.430E+01 -.548E+00 0.154E-01
   0.172E+02 0.497E+00 0.247E+00   -.176E+02 -.630E+00 -.245E+00   0.470E+00 -.116E-01 -.450E-04
   0.479E+02 0.111E+02 0.166E+00   -.520E+02 -.115E+02 -.176E+00   0.360E+01 0.321E+00 0.832E-02
   -.226E+01 -.384E+02 0.428E+00   0.372E+01 0.419E+02 -.428E+00   -.995E+00 -.319E+01 0.273E-02
   0.139E+02 -.144E+02 0.195E+00   -.137E+02 0.150E+02 -.196E+00   -.764E-02 -.583E+00 0.123E-02
   0.591E+01 -.145E+00 0.188E-01   -.595E+01 0.158E+00 -.195E-01   0.185E+00 -.975E-01 0.787E-03
   0.129E+02 -.598E+01 0.187E+00   -.133E+02 0.621E+01 -.188E+00   0.301E+00 -.112E+00 0.275E-02
   0.731E+01 -.435E+01 -.619E-01   -.708E+01 0.443E+01 0.639E-01   -.183E+00 -.209E+00 -.414E-02
   -.486E+01 0.994E+01 0.760E+00   0.465E+01 -.100E+02 -.759E+00   0.116E+00 0.221E+00 -.222E-02
   0.815E+01 0.248E+02 0.134E+01   -.792E+01 -.255E+02 -.133E+01   -.112E+00 0.869E+00 -.236E-02
   -.209E+00 0.834E+01 0.520E+00   0.587E+00 -.873E+01 -.514E+00   -.276E+00 0.356E+00 -.976E-02
   -.158E+02 0.230E+02 0.159E+01   0.156E+02 -.236E+02 -.159E+01   0.209E-02 0.587E+00 0.305E-02
   0.243E+01 0.642E+02 0.265E+01   -.367E+01 -.676E+02 -.270E+01   0.983E+00 0.319E+01 0.503E-01
   -.633E+01 0.580E+02 0.312E+01   0.889E+01 -.624E+02 -.316E+01   -.192E+01 0.378E+01 0.487E-01
   -.189E+02 -.598E+02 0.300E+01   0.214E+02 0.639E+02 -.303E+01   -.201E+01 -.394E+01 0.341E-01
   0.191E+02 -.394E+02 0.715E+00   -.214E+02 0.436E+02 -.741E+00   0.155E+01 -.362E+01 0.284E-01
   -.241E+02 -.273E+02 0.214E+01   0.248E+02 0.283E+02 -.214E+01   -.784E+00 -.127E+01 0.602E-02
   -.426E+01 -.144E+02 0.835E+00   0.437E+01 0.152E+02 -.841E+00   -.579E-02 -.489E+00 0.189E-02
   0.268E+01 -.317E+01 0.524E-02   -.300E+01 0.347E+01 0.136E-02   0.241E+00 -.303E+00 -.106E-01
   -.236E+01 -.201E+02 0.457E+00   0.215E+01 0.207E+02 -.453E+00   0.850E-01 -.721E+00 0.534E-04
   -.113E+02 -.442E+01 0.259E+00   0.114E+02 0.452E+01 -.261E+00   -.141E+00 -.332E+00 -.334E-02
   -.473E+01 0.303E+01 0.195E-01   0.479E+01 -.303E+01 -.206E-01   0.576E-01 0.699E-02 -.335E-03
   -.165E+02 0.107E+02 0.678E+00   0.169E+02 -.109E+02 -.669E+00   -.271E+00 0.109E+00 -.849E-02
   -.826E+01 0.283E+01 0.945E-01   0.828E+01 -.289E+01 -.952E-01   -.141E+00 0.763E-01 -.118E-02
   0.972E+00 -.815E+00 0.374E+00   -.124E+01 0.856E+00 -.375E+00   0.166E+00 -.676E-01 -.107E-02
   -.682E+01 0.268E+00 0.828E+00   0.719E+01 0.200E-01 -.831E+00   -.223E+00 -.210E+00 0.369E-02
   -.660E+02 -.459E+01 0.516E+00   0.701E+02 0.499E+01 -.534E+00   -.384E+01 -.418E+00 0.224E-01
   -.245E+02 0.449E+01 0.115E+01   0.249E+02 -.440E+01 -.115E+01   -.480E+00 -.491E-02 0.811E-02
   -.106E+01 -.327E+01 0.604E+00   0.553E+00 0.351E+01 -.602E+00   0.299E+00 -.242E+00 -.158E-02
   -.294E+00 -.390E+01 0.431E+00   0.320E+00 0.395E+01 -.431E+00   0.104E+00 -.602E-01 0.159E-02
   -.594E+02 0.706E+01 0.113E+01   0.644E+02 -.755E+01 -.114E+01   -.453E+01 0.536E+00 0.914E-02
   -.335E+02 -.942E-01 0.331E+00   0.336E+02 -.128E+00 -.354E+00   -.228E+00 0.106E+00 0.235E-01
   -.775E+01 0.202E+01 0.431E+00   0.768E+01 -.204E+01 -.430E+00   -.123E+00 0.727E-01 0.177E-03
   -.575E+01 0.241E+01 0.617E+00   0.632E+01 -.265E+01 -.616E+00   -.320E+00 0.225E+00 0.619E-03
   -.205E+02 -.886E+01 0.109E+01   0.211E+02 0.885E+01 -.108E+01   -.566E+00 0.110E-02 -.646E-02
   -.305E+02 -.546E+01 0.121E+01   0.311E+02 0.530E+01 -.122E+01   -.855E+00 0.260E-01 0.112E-01
   0.633E+00 0.108E+00 0.277E+00   -.992E+00 -.424E+00 -.275E+00   0.212E+00 0.207E+00 -.140E-02
   -.414E+01 0.163E+01 -.699E-02   0.438E+01 -.166E+01 0.684E-02   -.136E+00 0.808E-01 -.150E-02
   -.102E+02 0.198E+00 0.670E-01   0.103E+02 -.151E+00 -.710E-01   -.743E-01 -.438E-01 0.214E-03
   -.113E+02 -.478E+01 0.160E+00   0.114E+02 0.499E+01 -.160E+00   -.255E+00 -.181E+00 -.363E-02
   0.218E+01 -.140E+01 -.954E-01   -.227E+01 0.137E+01 0.950E-01   -.385E-01 -.953E-02 -.474E-03
   0.456E+02 -.447E+02 -.211E+01   -.381E+02 0.620E+02 0.228E+01   -.701E+01 -.166E+02 -.164E+00
   0.251E+02 0.307E+02 0.463E+00   -.158E+02 -.484E+02 -.502E+00   -.878E+01 0.162E+02 0.373E-01
   0.370E+02 0.131E+02 0.512E+01   -.300E+02 0.433E+00 -.551E+01   -.655E+01 -.118E+02 0.381E+00
   -.711E+02 0.186E+02 0.365E+00   0.622E+02 -.139E+01 -.321E+00   0.812E+01 -.159E+02 -.335E-01
   -.786E+02 -.922E+01 0.322E+01   0.712E+02 -.645E+01 -.324E+01   0.626E+01 0.149E+02 0.374E-01
   0.220E+02 -.106E+02 0.220E+01   -.294E+02 -.436E+01 -.222E+01   0.752E+01 0.136E+02 0.119E-01
   0.563E+02 -.116E+02 0.328E+01   -.630E+02 0.154E+02 -.315E+01   0.520E+01 -.292E+01 -.157E+00
   0.268E+02 -.292E+02 -.459E+02   -.162E+02 0.257E+02 0.455E+02   -.847E+01 0.228E+01 0.340E+00
 -----------------------------------------------------------------------------------------------
   0.419E+01 -.243E+00 -.746E+00   0.341E-12 -.256E-12 -.213E-13   -.361E+01 0.104E+00 0.703E+00
 
 
 POSITION                                       TOTAL-FORCE (eV/Angst)
 -----------------------------------------------------------------------------------
      2.83887     12.38268      9.99991         0.089427      0.232339     -0.002671
      0.69893      1.22688      9.99952         0.121365      0.029548     -0.000019
      1.41522     12.39249     10.00013        -0.036825      0.002071     -0.001061
      3.55077      1.19610      9.99850        -0.122246     -0.196333      0.000127
      2.83071      2.41457      9.99931         0.157623      0.167545      0.000719
      0.71387      3.71199      9.99986         0.283551      0.165641      0.002908
      1.40754      2.45749      9.99949        -0.024745     -0.025611      0.000081
      3.55471      3.62001     10.00214        -0.218109      0.091918      0.013139
      0.79907      6.17646     10.00108         0.170712      0.169901      0.001517
      1.49541      4.90777     10.00230        -0.240416     -0.180196      0.003260
      0.74079      8.67105     10.00011         0.137147     -0.141957      0.001616
      1.50533      7.45263     10.00085        -0.278281     -0.039976     -0.001444
      3.56187      8.71536     10.00027         0.406818      0.087424      0.002875
      2.85768      9.93662     10.00023         0.136027      0.047316      0.001160
      0.71420     11.15303     10.00037         0.152767     -0.088317      0.000020
      1.42970      9.92082     10.00016        -0.074056      0.116440      0.001591
      3.56250     11.16172     10.00043         0.039429     -0.145179     -0.002461
      7.11614     12.38722      9.99806        -0.085047      0.130196     -0.001603
      4.97840      1.20556      9.99749         0.118710      0.225406      0.005394
      5.69798     12.38510      9.99863         0.086264     -0.016325     -0.004175
      7.81998      1.20831      9.99747        -0.154428     -0.020039      0.003763
      7.11594      2.43036      9.99944        -0.187614     -0.046782     -0.000850
      5.66677      2.43651      9.99716         0.534795     -0.478811      0.006433
      7.10936      7.53735      9.99810         0.401479     -0.037983      0.007796
      5.00799      8.71462      9.99966        -0.615714      0.362118      0.003137
      7.84036      8.73908      9.99578        -0.138810     -0.253772      0.004434
      7.12543      9.95553      9.99773         0.105393      0.260313     -0.004196
      4.97794     11.16444      9.99996        -0.065456     -0.022829     -0.004613
      5.69658      9.94080      9.99913        -0.126693     -0.135454      0.003687
      7.83879     11.16671      9.99885        -0.125625     -0.254549     -0.005957
     11.38661     12.39613     10.00011         0.122539      0.014690     -0.001487
      9.24878      1.22925      9.99890         0.095571     -0.073328      0.000488
      9.96351     12.39767      9.99980        -0.124819      0.018909     -0.001942
     12.08181      1.23917      9.99929        -0.087347     -0.034581     -0.001257
     11.37351      2.48515      9.99857         0.140660      0.067639      0.000918
      9.18131      3.69602     10.00348         0.071715     -0.040999      0.005283
      9.94290      2.47763      9.99897        -0.173895      0.084771      0.005897
     12.08017      3.73079      9.99928        -0.199086     -0.018633      0.000993
     11.35268      4.96774     10.00020         0.151319     -0.017514      0.002000
      9.18266      6.24801     10.00110         0.242935      0.083829      0.004396
      9.87640      4.97490     10.00216        -0.089017     -0.111091      0.001745
     12.13648      6.18332      9.99985        -0.209465      0.064988      0.002056
     11.40875      7.42236      9.99897         0.235455     -0.000253      0.001907
      9.26680      8.69420      9.99741         0.041432     -0.007866      0.000111
      9.96602      7.44329      9.99810        -0.337820     -0.139906      0.000855
     12.11768      8.66498      9.99967        -0.136772     -0.100123     -0.000289
     11.40666      9.91049     10.00014         0.095748      0.057744     -0.001790
      9.26281     11.15775      9.99961         0.063511      0.003151     -0.003851
      9.97858      9.92299      9.99937        -0.116274      0.016272     -0.003513
     12.10104     11.15438     10.00050        -0.134727     -0.037877     -0.001007
      2.89635      4.80989     10.00688        -0.050983     -0.629219     -0.012653
      2.88070      7.52037     10.00099        -0.199809      0.014921      0.001647
      4.94463      3.62632      9.99974        -0.025425      0.802882      0.023344
      7.80715      3.61346     10.00923        -0.108023     -0.079357      0.008682
      7.78781      6.36422     10.00406        -0.600757      0.451667      0.018938
      5.71478      7.50676     10.00029         0.815928     -0.221935     -0.012736
      4.29736      6.14910     10.00321        -1.066675      0.763707     -0.034272
      6.43549      4.98205     10.04798         1.136639     -0.936552     -0.039071
 -----------------------------------------------------------------------------------
    total drift:                               -0.007874      0.007710      0.001022


--------------------------------------------------------------------------------------------------------



  FREE ENERGIE OF THE ION-ELECTRON SYSTEM (eV)
  ---------------------------------------------------
  free  energy   TOTEN  =      -601.00239062 eV

  energy  without entropy=     -601.00239051  energy(sigma->0) =     -601.00239057
 


--------------------------------------------------------------------------------------------------------


    POTLOK:  cpu time    3.3691: real time    3.3691


--------------------------------------------------------------------------------------------------------


 stress matrix after NEB project (eV)
    -54.94624      3.58132      0.04238
      3.58125    -15.94842     -0.04407
      0.04276     -0.05103     -0.52507
  FORCES: max atom, RMS     1.473297    0.402132
  FORCE total and by dimension    3.062544    1.136639
  Stress total and by dimension   57.440196   54.946237
 writing wavefunctions
     LOOP+:  cpu time**********: real time**********
    4ORBIT:  cpu time    0.0000: real time    0.0000
 


 total charge     
 
# of ion       s       p       d       tot
------------------------------------------
    1        0.871   1.797   0.000   2.668
    2        0.867   1.779   0.000   2.647
    3        0.868   1.773   0.000   2.641
    4        0.872   1.790   0.000   2.663
    5        0.870   1.814   0.000   2.685
    6        0.861   1.763   0.000   2.624
    7        0.868   1.768   0.000   2.636
    8        0.859   1.722   0.000   2.581
    9        0.844   1.732   0.000   2.575
   10        0.849   1.706   0.000   2.554
   11        0.863   1.769   0.000   2.632
   12        0.852   1.705   0.000   2.558
   13        0.860   1.755   0.000   2.615
   14        0.872   1.796   0.000   2.668
   15        0.866   1.785   0.000   2.652
   16        0.868   1.767   0.000   2.635
   17        0.870   1.800   0.000   2.670
   18        0.870   1.802   0.000   2.672
   19        0.870   1.793   0.000   2.663
   20        0.869   1.795   0.000   2.664
   21        0.872   1.798   0.000   2.670
   22        0.859   1.757   0.000   2.617
   23        0.855   1.748   0.000   2.603
   24        0.859   1.726   0.000   2.585
   25        0.855   1.748   0.000   2.603
   26        0.871   1.813   0.000   2.684
   27        0.873   1.795   0.000   2.668
   28        0.869   1.795   0.000   2.664
   29        0.870   1.794   0.000   2.664
   30        0.871   1.797   0.000   2.669
   31        0.867   1.773   0.000   2.639
   32        0.867   1.767   0.000   2.635
   33        0.867   1.785   0.000   2.652
   34        0.866   1.769   0.000   2.635
   35        0.863   1.762   0.000   2.625
   36        0.852   1.708   0.000   2.560
   37        0.864   1.770   0.000   2.634
   38        0.859   1.756   0.000   2.615
   39        0.853   1.719   0.000   2.572
   40        0.848   1.705   0.000   2.553
   41        0.842   1.731   0.000   2.573
   42        0.853   1.719   0.000   2.573
   43        0.859   1.757   0.000   2.616
   44        0.868   1.767   0.000   2.634
   45        0.861   1.763   0.000   2.624
   46        0.863   1.760   0.000   2.623
   47        0.865   1.768   0.000   2.633
   48        0.868   1.774   0.000   2.642
   49        0.867   1.779   0.000   2.646
   50        0.867   1.772   0.000   2.639
   51        1.226   2.701   0.000   3.927
   52        1.228   2.702   0.000   3.929
   53        1.212   2.669   0.000   3.882
   54        1.224   2.711   0.000   3.935
   55        1.223   2.700   0.000   3.923
   56        1.218   2.678   0.000   3.896
   57        0.427   0.502   6.061   6.990
   58        0.525   0.537   9.866  10.928
--------------------------------------------------
tot         51.444 105.487  15.927 172.858
 


 magnetization (x)
 
# of ion       s       p       d       tot
------------------------------------------
    1       -0.000  -0.003   0.000  -0.003
    2       -0.000  -0.003   0.000  -0.003
    3        0.000   0.006   0.000   0.006
    4        0.001   0.009   0.000   0.010
    5       -0.001  -0.003   0.000  -0.004
    6        0.000  -0.000   0.000  -0.000
    7        0.000   0.004   0.000   0.005
    8        0.001   0.013   0.000   0.014
    9        0.000   0.005   0.000   0.006
   10       -0.000  -0.002   0.000  -0.002
   11        0.001   0.001   0.000   0.001
   12        0.001   0.005   0.000   0.006
   13        0.001   0.008   0.000   0.009
   14        0.000  -0.001   0.000  -0.001
   15       -0.000  -0.003   0.000  -0.004
   16        0.000   0.006   0.000   0.007
   17        0.001   0.005   0.000   0.006
   18       -0.000  -0.002   0.000  -0.002
   19        0.000   0.000   0.000   0.000
   20        0.000   0.003   0.000   0.003
   21        0.000   0.002   0.000   0.002
   22       -0.000  -0.000   0.000  -0.001
   23        0.001   0.009   0.000   0.010
   24       -0.001  -0.008   0.000  -0.009
   25        0.001  -0.002   0.000  -0.000
   26        0.000   0.004   0.000   0.004
   27       -0.000  -0.006   0.000  -0.007
   28       -0.000  -0.002   0.000  -0.002
   29        0.000   0.003   0.000   0.003
   30        0.000   0.005   0.000   0.005
   31       -0.000  -0.003   0.000  -0.003
   32       -0.000  -0.003   0.000  -0.004
   33        0.000   0.003   0.000   0.004
   34        0.000   0.003   0.000   0.003
   35       -0.000  -0.003   0.000  -0.003
   36       -0.000  -0.003   0.000  -0.004
   37        0.000   0.006   0.000   0.007
   38        0.000   0.004   0.000   0.004
   39       -0.000  -0.001   0.000  -0.001
   40       -0.000  -0.001   0.000  -0.001
   41        0.000   0.002   0.000   0.002
   42        0.000   0.003   0.000   0.003
   43       -0.000  -0.001   0.000  -0.002
   44       -0.000  -0.003   0.000  -0.003
   45        0.001   0.007   0.000   0.008
   46        0.000   0.003   0.000   0.003
   47       -0.000  -0.002   0.000  -0.002
   48       -0.000  -0.004   0.000  -0.004
   49        0.000   0.003   0.000   0.003
   50        0.000   0.004   0.000   0.005
   51        0.003   0.009   0.000   0.013
   52        0.012   0.051   0.000   0.064
   53        0.017   0.067   0.000   0.085
   54        0.000   0.009   0.000   0.009
   55        0.004   0.024   0.000   0.029
   56       -0.004  -0.008   0.000  -0.012
   57        0.048   0.052   3.365   3.465
   58       -0.002   0.001   0.028   0.026
--------------------------------------------------
tot          0.088   0.274   3.392   3.754
 

 total amount of memory used by VASP MPI-rank0   177612. kBytes
=======================================================================

   base      :      30000. kBytes
   nonl-proj :       5318. kBytes
   fftplans  :      13453. kBytes
   grid      :      34560. kBytes
   one-center:         62. kBytes
   HF        :         23. kBytes
   nonlr-proj:      15344. kBytes
   wavefun   :      78852. kBytes
 
  
  
 General timing and accounting informations for this job:
 ========================================================
  
                  Total CPU time used (sec):   104090.617
                            User time (sec):   104001.329
                          System time (sec):       89.285
                         Elapsed time (sec):   104101.396
  
                   Maximum memory used (kb):      431176.
                   Average memory used (kb):           0.
  
                          Minor page faults:       728316
                          Major page faults:            1
                 Voluntary context switches:         1386
