 vasp.5.4.4.18Apr17-6-g9f103f2a35 (build Feb 25 2019 10:51:38) complex          
  
 executed on             LinuxIFC date 2021.06.16  07:44:22
 running on   80 total cores
 distrk:  each k-point on   40 cores,    2 groups
 distr:  one band on NCORES_PER_BAND=  40 cores,    1 groups


--------------------------------------------------------------------------------------------------------


 INCAR:
 POTCAR:    PAW_PBE C 08Apr2002                   
 POTCAR:    PAW_PBE N 08Apr2002                   
 POTCAR:    PAW_PBE Ni 02Aug2007                  
 POTCAR:    PAW_PBE Fe 06Sep2000                  

 ----------------------------------------------------------------------------- 
|                                                                             |
|           W    W    AA    RRRRR   N    N  II  N    N   GGGG   !!!           |
|           W    W   A  A   R    R  NN   N  II  NN   N  G    G  !!!           |
|           W    W  A    A  R    R  N N  N  II  N N  N  G       !!!           |
|           W WW W  AAAAAA  RRRRR   N  N N  II  N  N N  G  GGG   !            |
|           WW  WW  A    A  R   R   N   NN  II  N   NN  G    G                |
|           W    W  A    A  R    R  N    N  II  N    N   GGGG   !!!           |
|                                                                             |
|      For optimal performance we recommend to set                            |
|        NCORE= 4 - approx SQRT( number of cores)                             |
|      NCORE specifies how many cores store one orbital (NPAR=cpu/NCORE).     |
|      This setting can  greatly improve the performance of VASP for DFT.     |
|      The default,   NCORE=1            might be grossly inefficient         |
|      on modern multi-core architectures or massively parallel machines.     |
|      Do your own testing !!!!                                               |
|      Unfortunately you need to use the default for GW and RPA calculations. |
|      (for HF NCORE is supported but not extensively tested yet)             |
|                                                                             |
 ----------------------------------------------------------------------------- 


 ----------------------------------------------------------------------------- 
|                                                                             |
|           W    W    AA    RRRRR   N    N  II  N    N   GGGG   !!!           |
|           W    W   A  A   R    R  NN   N  II  NN   N  G    G  !!!           |
|           W    W  A    A  R    R  N N  N  II  N N  N  G       !!!           |
|           W WW W  AAAAAA  RRRRR   N  N N  II  N  N N  G  GGG   !            |
|           WW  WW  A    A  R   R   N   NN  II  N   NN  G    G                |
|           W    W  A    A  R    R  N    N  II  N    N   GGGG   !!!           |
|                                                                             |
|      You have enabled k-point parallelism (KPAR>1).                         |
|      This developmental code was originally  written by Paul Kent at ORNL,  |
|      and carefully double checked in Vienna.                                |
|      GW as well as linear response parallelism added by Martijn Marsman     |
|      and Georg Kresse.                                                      |
|      Carefully verify results versus KPAR=1.                                |
|      Report problems to Paul Kent and Vienna.                               |
|                                                                             |
 ----------------------------------------------------------------------------- 

 POTCAR:    PAW_PBE C 08Apr2002                   
   VRHFIN =C: s2p2                                                              
   LEXCH  = PE                                                                  
   EATOM  =   147.1560 eV,   10.8157 Ry                                         
                                                                                
   TITEL  = PAW_PBE C 08Apr2002                                                 
   LULTRA =        F    use ultrasoft PP ?                                      
   IUNSCR =        1    unscreen: 0-lin 1-nonlin 2-no                           
   RPACOR =    1.200    partial core radius                                     
   POMASS =   12.011; ZVAL   =    4.000    mass and valenz                      
   RCORE  =    1.500    outmost cutoff radius                                   
   RWIGS  =    1.630; RWIGS  =    0.863    wigner-seitz radius (au A)           
   ENMAX  =  400.000; ENMIN  =  300.000 eV                                      
   ICORE  =        2    local potential                                         
   LCOR   =        T    correct aug charges                                     
   LPAW   =        T    paw PP                                                  
   EAUG   =  644.873                                                            
   DEXC   =    0.000                                                            
   RMAX   =    1.529    core radius for proj-oper                               
   RAUG   =    1.300    factor for augmentation sphere                          
   RDEP   =    1.501    radius for radial grids                                 
   RDEPT  =    1.300    core radius for aug-charge                              
                                                                                
   Atomic configuration                                                         
    4 entries                                                                   
     n  l   j            E        occ.                                          
     1  0  0.50      -273.3789   2.0000                                         
     2  0  0.50       -13.7508   2.0000                                         
     2  1  0.50        -5.2854   2.0000                                         
     3  2  1.50        -5.4423   0.0000                                         
   Description                                                                  
     l       E           TYP  RCUT    TYP  RCUT                                 
     0    -13.7508458     23  1.200                                             
     0     -8.2022199     23  1.200                                             
     1     -5.2854383     23  1.500                                             
     1     34.0145650     23  1.500                                             
     2     -5.4423304      7  1.500                                             
  local pseudopotential read in
  partial core-charges read in
  partial kinetic energy density read in
  atomic valenz-charges read in
  non local Contribution for L=           0  read in
    real space projection operators read in
  non local Contribution for L=           0  read in
    real space projection operators read in
  non local Contribution for L=           1  read in
    real space projection operators read in
  non local Contribution for L=           1  read in
    real space projection operators read in
    PAW grid and wavefunctions read in
 
   number of l-projection  operators is LMAX  =           4
   number of lm-projection operators is LMMAX =           8
 
 POTCAR:    PAW_PBE N 08Apr2002                   
   VRHFIN =N: s2p3                                                              
   LEXCH  = PE                                                                  
   EATOM  =   264.5486 eV,   19.4438 Ry                                         
                                                                                
   TITEL  = PAW_PBE N 08Apr2002                                                 
   LULTRA =        F    use ultrasoft PP ?                                      
   IUNSCR =        1    unscreen: 0-lin 1-nonlin 2-no                           
   RPACOR =    1.200    partial core radius                                     
   POMASS =   14.001; ZVAL   =    5.000    mass and valenz                      
   RCORE  =    1.500    outmost cutoff radius                                   
   RWIGS  =    1.400; RWIGS  =    0.741    wigner-seitz radius (au A)           
   ENMAX  =  400.000; ENMIN  =  300.000 eV                                      
   ICORE  =        2    local potential                                         
   LCOR   =        T    correct aug charges                                     
   LPAW   =        T    paw PP                                                  
   EAUG   =  627.112                                                            
   DEXC   =    0.000                                                            
   RMAX   =    1.529    core radius for proj-oper                               
   RAUG   =    1.300    factor for augmentation sphere                          
   RDEP   =    1.514    radius for radial grids                                 
   RDEPT  =    1.338    core radius for aug-charge                              
                                                                                
   Atomic configuration                                                         
    4 entries                                                                   
     n  l   j            E        occ.                                          
     1  0  0.50      -384.7179   2.0000                                         
     2  0  0.50       -18.5828   2.0000                                         
     2  1  0.50        -7.0898   3.0000                                         
     3  2  1.50        -6.8029   0.0000                                         
   Description                                                                  
     l       E           TYP  RCUT    TYP  RCUT                                 
     0    -18.5828119     23  1.200                                             
     0    -13.5018863     23  1.200                                             
     1     -7.0897853     23  1.500                                             
     1      9.5240782     23  1.500                                             
     2     -6.8029130      7  1.500                                             
  local pseudopotential read in
  partial core-charges read in
  partial kinetic energy density read in
  atomic valenz-charges read in
  non local Contribution for L=           0  read in
    real space projection operators read in
  non local Contribution for L=           0  read in
    real space projection operators read in
  non local Contribution for L=           1  read in
    real space projection operators read in
  non local Contribution for L=           1  read in
    real space projection operators read in
    PAW grid and wavefunctions read in
 
   number of l-projection  operators is LMAX  =           4
   number of lm-projection operators is LMMAX =           8
 
 POTCAR:    PAW_PBE Ni 02Aug2007                  
   VRHFIN =Ni:                                                                  
   LEXCH  = PE                                                                  
   EATOM  =  1077.6739 eV,   79.2068 Ry                                         
                                                                                
   TITEL  = PAW_PBE Ni 02Aug2007                                                
   LULTRA =        F    use ultrasoft PP ?                                      
   IUNSCR =        1    unscreen: 0-lin 1-nonlin 2-no                           
   RPACOR =    2.000    partial core radius                                     
   POMASS =   58.690; ZVAL   =   10.000    mass and valenz                      
   RCORE  =    2.300    outmost cutoff radius                                   
   RWIGS  =    2.430; RWIGS  =    1.286    wigner-seitz radius (au A)           
   ENMAX  =  269.532; ENMIN  =  202.149 eV                                      
   RCLOC  =    1.201    cutoff for local pot                                    
   LCOR   =        T    correct aug charges                                     
   LPAW   =        T    paw PP                                                  
   EAUG   =  544.565                                                            
   DEXC   =    0.000                                                            
   RMAX   =    2.357    core radius for proj-oper                               
   RAUG   =    1.300    factor for augmentation sphere                          
   RDEP   =    2.390    radius for radial grids                                 
   RDEPT  =    1.838    core radius for aug-charge                              
                                                                                
   Atomic configuration                                                         
    9 entries                                                                   
     n  l   j            E        occ.                                          
     1  0  0.50     -8206.4253   2.0000                                         
     2  0  0.50      -976.1748   2.0000                                         
     2  1  1.50      -839.0571   6.0000                                         
     3  0  0.50      -105.9991   2.0000                                         
     3  1  1.50       -66.4603   6.0000                                         
     3  2  2.50        -4.6458   9.0000                                         
     4  0  0.50        -4.4926   1.0000                                         
     4  1  1.50        -4.0817   0.0000                                         
     4  3  2.50        -1.3606   0.0000                                         
   Description                                                                  
     l       E           TYP  RCUT    TYP  RCUT                                 
     2     -4.6457903     23  2.300                                             
     2     -6.0063729     23  2.300                                             
     0     -4.4925590     23  2.300                                             
     0      5.0102601     23  2.300                                             
     1     -2.7211652     23  2.300                                             
     1     16.5183231     23  2.300                                             
  local pseudopotential read in
  partial core-charges read in
  partial kinetic energy density read in
  atomic valenz-charges read in
  non local Contribution for L=           2  read in
    real space projection operators read in
  non local Contribution for L=           2  read in
    real space projection operators read in
  non local Contribution for L=           0  read in
    real space projection operators read in
  non local Contribution for L=           0  read in
    real space projection operators read in
  non local Contribution for L=           1  read in
    real space projection operators read in
  non local Contribution for L=           1  read in
    real space projection operators read in
    PAW grid and wavefunctions read in
 
   number of l-projection  operators is LMAX  =           6
   number of lm-projection operators is LMMAX =          18
 
 POTCAR:    PAW_PBE Fe 06Sep2000                  
   VRHFIN =Fe:  d7 s1                                                           
   LEXCH  = PE                                                                  
   EATOM  =   594.3153 eV,   43.6809 Ry                                         
                                                                                
   TITEL  = PAW_PBE Fe 06Sep2000                                                
   LULTRA =        F    use ultrasoft PP ?                                      
   IUNSCR =        1    unscreen: 0-lin 1-nonlin 2-no                           
   RPACOR =    2.000    partial core radius                                     
   POMASS =   55.847; ZVAL   =    8.000    mass and valenz                      
   RCORE  =    2.300    outmost cutoff radius                                   
   RWIGS  =    2.460; RWIGS  =    1.302    wigner-seitz radius (au A)           
   ENMAX  =  267.882; ENMIN  =  200.911 eV                                      
   RCLOC  =    1.701    cutoff for local pot                                    
   LCOR   =        T    correct aug charges                                     
   LPAW   =        T    paw PP                                                  
   EAUG   =  511.368                                                            
   DEXC   =    0.000                                                            
   RMAX   =    2.356    core radius for proj-oper                               
   RAUG   =    1.300    factor for augmentation sphere                          
   RDEP   =    2.442    radius for radial grids                                 
   RDEPT  =    1.890    core radius for aug-charge                              
                                                                                
   Atomic configuration                                                         
    9 entries                                                                   
     n  l   j            E        occ.                                          
     1  0  0.50     -6993.8440   2.0000                                         
     2  0  0.50      -814.6047   2.0000                                         
     2  1  1.50      -693.3689   6.0000                                         
     3  0  0.50       -89.4732   2.0000                                         
     3  1  1.50       -55.6373   6.0000                                         
     3  2  2.50        -3.8151   7.0000                                         
     4  0  0.50        -4.2551   1.0000                                         
     4  1  1.50        -3.4015   0.0000                                         
     4  3  2.50        -1.3606   0.0000                                         
   Description                                                                  
     l       E           TYP  RCUT    TYP  RCUT                                 
     2     -3.8151135     23  2.300                                             
     2     -5.1756961     23  2.300                                             
     0     -4.2550963     23  2.300                                             
     0      7.2035603     23  2.300                                             
     1     -2.7211652     23  2.300                                             
     1     18.4316424     23  2.300                                             
  local pseudopotential read in
  partial core-charges read in
  partial kinetic energy density read in
  atomic valenz-charges read in
  non local Contribution for L=           2  read in
    real space projection operators read in
  non local Contribution for L=           2  read in
    real space projection operators read in
  non local Contribution for L=           0  read in
    real space projection operators read in
  non local Contribution for L=           0  read in
    real space projection operators read in
  non local Contribution for L=           1  read in
    real space projection operators read in
  non local Contribution for L=           1  read in
    real space projection operators read in
    PAW grid and wavefunctions read in
 
   number of l-projection  operators is LMAX  =           6
   number of lm-projection operators is LMMAX =          18
 

 ----------------------------------------------------------------------------- 
|                                                                             |
|  ADVICE TO THIS USER RUNNING 'VASP/VAMP'   (HEAR YOUR MASTER'S VOICE ...):  |
|                                                                             |
|      You have a (more or less) 'large supercell' and for larger cells       |
|      it might be more efficient to use real space projection opertators     |
|      So try LREAL= Auto  in the INCAR   file.                               |
|      Mind:          For very  accurate calculation you might also keep the  |
|      reciprocal projection scheme          (i.e. LREAL=.FALSE.)             |
|                                                                             |
 ----------------------------------------------------------------------------- 

  PAW_PBE C 08Apr2002                   :
 energy of atom  1       EATOM= -147.1560
 kinetic energy error for atom=    0.0076 (will be added to EATOM!!)
  PAW_PBE N 08Apr2002                   :
 energy of atom  2       EATOM= -264.5486
 kinetic energy error for atom=    0.0138 (will be added to EATOM!!)
  PAW_PBE Ni 02Aug2007                  :
 energy of atom  3       EATOM=-1077.6739
 kinetic energy error for atom=    0.0030 (will be added to EATOM!!)
  PAW_PBE Fe 06Sep2000                  :
 energy of atom  4       EATOM= -594.3153
 kinetic energy error for atom=    0.0026 (will be added to EATOM!!)
 
 
 POSCAR:  C  N Ni Fe                             
  positions in cartesian coordinates
  No initial velocities read in
 exchange correlation table for  LEXCH =        8
   RHO(1)=    0.500       N(1)  =     2000
   RHO(2)=  100.500       N(2)  =     4000

 VTST: version 3.2, (02/03/18)

 CHAIN: initializing optimizer
 
 OPT: Using VASP Conjugate-Gradient optimizer
 CHAIN: Read ICHAIN            0
 
 POSCAR:  C  N Ni Fe                             
  positions in cartesian coordinates
  No initial velocities read in
 


--------------------------------------------------------------------------------------------------------


 ion  position               nearest neighbor table
   1  0.228  1.000  0.500-   3 1.46   4 1.46  18 1.46
   2  0.059  0.100  0.500-   7 1.42   3 1.43  33 1.45
   3  0.116  1.000  0.500-  16 1.43   2 1.43   1 1.46
   4  0.283  0.104  0.500-  20 1.45   5 1.45   1 1.46
   5  0.224  0.206  0.500-  50 1.38   7 1.45   4 1.45
   6  0.051  0.299  0.500-  10 1.40  37 1.42   7 1.43
   7  0.112  0.201  0.500-   2 1.42   6 1.43   5 1.45
   8  0.211  0.399  0.500-  50 1.37  10 1.40  11 1.41
   9  0.048  0.500  0.500-  41 1.41  14 1.42  10 1.42
  10  0.103  0.399  0.500-   8 1.40   6 1.40   9 1.42
  11  0.265  0.499  0.499-  54 1.34   8 1.41  12 1.42
  12  0.211  0.600  0.500-  51 1.38  14 1.40  11 1.42
  13  0.052  0.701  0.500-  14 1.41  45 1.42  17 1.43
  14  0.103  0.600  0.500-  12 1.40  13 1.41   9 1.42
  15  0.223  0.794  0.500-  51 1.39  17 1.45  18 1.46
  16  0.059  0.900  0.500-  17 1.42   3 1.43  49 1.45
  17  0.112  0.799  0.500-  16 1.42  13 1.43  15 1.45
  18  0.283  0.895  0.500-  28 1.45  15 1.46   1 1.46
  19  0.558  0.000  0.500-  22 1.42  29 1.42  21 1.43
  20  0.395  0.105  0.500-  52 1.39   4 1.45  21 1.46
  21  0.448  0.000  0.500-  19 1.43  28 1.45  20 1.46
  22  0.614  0.100  0.500-  23 1.42  19 1.42  31 1.43
  23  0.558  0.200  0.500-  52 1.38  22 1.42  24 1.44
  24  0.612  0.302  0.500-  53 1.40  35 1.42  23 1.44
  25  0.607  0.500  0.500-  53 1.39  55 1.40  39 1.45
  26  0.613  0.698  0.500-  55 1.40  43 1.41  27 1.44
  27  0.559  0.801  0.500-  56 1.38  29 1.42  26 1.44
  28  0.395  0.896  0.500-  56 1.40  21 1.45  18 1.45
  29  0.614  0.900  0.500-  27 1.42  19 1.42  47 1.43
  30  0.891  0.000  0.500-  33 1.42  49 1.42  32 1.44
  31  0.724  0.100  0.500-  36 1.41  32 1.42  22 1.43
  32  0.780  0.000  0.500-  47 1.42  31 1.42  30 1.44
  33  0.947  0.100  0.500-  30 1.42  34 1.43   2 1.45
  34  0.889  0.199  0.500-  37 1.41  33 1.43  36 1.43
  35  0.721  0.300  0.500-  40 1.42  24 1.42  36 1.43
  36  0.778  0.199  0.500-  31 1.41  35 1.43  34 1.43
  37  0.942  0.299  0.500-  34 1.41   6 1.42  38 1.43
  38  0.885  0.399  0.500-  41 1.42  40 1.42  37 1.43
  39  0.719  0.500  0.500-  40 1.42  44 1.43  25 1.45
  40  0.776  0.400  0.500-  35 1.42  38 1.42  39 1.42
  41  0.940  0.500  0.500-   9 1.41  38 1.42  42 1.42
  42  0.885  0.600  0.500-  41 1.42  44 1.42  45 1.43
  43  0.722  0.701  0.500-  26 1.41  44 1.42  48 1.43
  44  0.776  0.600  0.500-  43 1.42  42 1.42  39 1.43
  45  0.942  0.701  0.500-  46 1.41  13 1.42  42 1.43
  46  0.889  0.801  0.500-  45 1.41  49 1.43  48 1.43
  47  0.725  0.901  0.500-  48 1.41  32 1.42  29 1.43
  48  0.779  0.801  0.500-  47 1.41  43 1.43  46 1.43
  49  0.947  0.900  0.500-  30 1.42  46 1.43  16 1.45
  50  0.271  0.307  0.499-   8 1.37   5 1.38  57 1.91
  51  0.271  0.692  0.500-  12 1.38  15 1.39  58 1.93
  52  0.451  0.202  0.499-  23 1.38  20 1.39  57 1.93
  53  0.555  0.400  0.499-  25 1.39  24 1.40  57 1.95
  54  0.368  0.499  0.499-  11 1.34  57 1.87  58 1.87
  55  0.556  0.601  0.499-  25 1.40  26 1.40  58 1.94
  56  0.452  0.799  0.500-  27 1.38  28 1.40  58 1.96
  57  0.412  0.354  0.499-  54 1.87  50 1.91  52 1.93  53 1.95
  58  0.413  0.645  0.499-  54 1.87  51 1.93  55 1.94  56 1.96
 
  Warning from LATTYP: Got some problem with cell dimensions!
  Tried to take original basis but could not verify dimensions!
  LATTYP: Found a triclinic cell.
 ALAT       =    34.1639707408
 B/A-ratio  =     0.3582224119
 C/A-ratio  =     0.5856462105
 COS(alpha) =     0.0000383972
 COS(beta)  =     0.5855941833
 COS(gamma) =     0.7161663973
  
  Lattice vectors:
  
 A1 = (  12.9505147807, -24.4773572478, -20.0079995466)
 A2 = (  -0.0096973768, -12.2382961580,   0.0000000000)
 A3 = (  -0.0041904657,  -0.0007649319, -20.0079995466)


Analysis of symmetry for initial positions (statically):
=====================================================================
 Subroutine PRICEL returns:
 Original cell was already a primitive cell.
 

 Routine SETGRP: Setting up the symmetry group for a 
 triclinic supercell.


 Subroutine GETGRP returns: Found  1 space group operations
 (whereof  1 operations were pure point group operations)
 out of a pool of  2 trial point group operations.


The static configuration has the point symmetry C_1 .


Analysis of symmetry for dynamics (positions and initial velocities):
=====================================================================
 Subroutine PRICEL returns:
 Original cell was already a primitive cell.
 

 Routine SETGRP: Setting up the symmetry group for a 
 triclinic supercell.


 Subroutine GETGRP returns: Found  1 space group operations
 (whereof  1 operations were pure point group operations)
 out of a pool of  2 trial point group operations.


The dynamic configuration has the point symmetry C_1 .


Analysis of structural, dynamic, and magnetic symmetry:
=====================================================================
 Subroutine PRICEL returns:
 Original cell was already a primitive cell.
 

 Routine SETGRP: Setting up the symmetry group for a 
 triclinic supercell.


 Subroutine GETGRP returns: Found  1 space group operations
 (whereof  1 operations were pure point group operations)
 out of a pool of  2 trial point group operations.


The magnetic configuration has the point symmetry C_1 .


 Subroutine INISYM returns: Found  1 space group operations
 (whereof  1 operations are pure point group operations),
 and found     1 'primitive' translations

 
 
 KPOINTS: KPOINTS created by Atomic Simulation Env

Automatic generation of k-mesh.
Space group operators:
 irot       det(A)        alpha          n_x          n_y          n_z        tau_x        tau_y        tau_z
    1     1.000000     0.000000     1.000000     0.000000     0.000000     0.000000     0.000000     0.000000
 
 Subroutine IBZKPT returns following result:
 ===========================================
 
 Found      2 irreducible k-points:
 
 Following reciprocal coordinates:
            Coordinates               Weight
  0.250000  0.250000  0.000000      2.000000
 -0.250000  0.250000  0.000000      2.000000
 
 Following cartesian coordinates:
            Coordinates               Weight
  0.019269  0.020412 -0.000005      2.000000
 -0.019269  0.020443  0.000003      2.000000
 
 
 Subroutine IBZKPT_HF returns following result:
 ==============================================
 
 Found      4 k-points in 1st BZ
 the following      4 k-points will be used (e.g. in the exchange kernel)
 Following reciprocal coordinates:   # in IRBZ
  0.250000  0.250000  0.000000    0.25000000   1 t-inv F
 -0.250000  0.250000  0.000000    0.25000000   2 t-inv F
 -0.250000 -0.250000  0.000000    0.25000000   1 t-inv T
  0.250000 -0.250000 -0.000000    0.25000000   2 t-inv T


--------------------------------------------------------------------------------------------------------




 Dimension of arrays:
   k-points           NKPTS =      2   k-points in BZ     NKDIM =      4   number of bands    NBANDS=    158
   number of dos      NEDOS =    301   number of ions     NIONS =     58
   non local maximal  LDIM  =      6   non local SUM 2l+1 LMDIM =     18
   total plane-waves  NPLWV = ******
   max r-space proj   IRMAX =      1   max aug-charges    IRDMAX=  14730
   dimension x,y,z NGX =    96 NGY =   90 NGZ =  150
   dimension x,y,z NGXF=   192 NGYF=  180 NGZF=  300
   support grid    NGXF=   192 NGYF=  180 NGZF=  300
   ions per type =              49   7   1   1
   NGX,Y,Z   is equivalent  to a cutoff of  12.30, 12.23, 12.46 a.u.
   NGXF,Y,Z  is equivalent  to a cutoff of  24.60, 24.45, 24.93 a.u.

 SYSTEM =  unknown system                          
 POSCAR =   C  N Ni Fe                             

 Startparameter for this run:
   NWRITE =      2    write-flag & timer
   PREC   = accura    normal or accurate (medium, high low for compatibility)
   ISTART =      1    job   : 0-new  1-cont  2-samecut
   ICHARG =      0    charge: 1-file 2-atom 10-const
   ISPIN  =      2    spin polarized calculation?
   LNONCOLLINEAR =      F non collinear calculations
   LSORBIT =      F    spin-orbit coupling
   INIWAV =      1    electr: 0-lowe 1-rand  2-diag
   LASPH  =      T    aspherical Exc in radial PAW
   METAGGA=      F    non-selfconsistent MetaGGA calc.

 Electronic Relaxation 1
   ENCUT  =  500.0 eV  36.75 Ry    6.06 a.u.  23.65 22.31 36.48*2*pi/ulx,y,z
   ENINI  =  500.0     initial cutoff
   ENAUG  =  644.9 eV  augmentation charge cutoff
   NELM   =    250;   NELMIN=  2; NELMDL=  0     # of ELM steps 
   EDIFF  = 0.1E-03   stopping-criterion for ELM
   LREAL  =      F    real-space projection
   NLSPLINE    = F    spline interpolate recip. space projectors
   LCOMPAT=      F    compatible to vasp.4.4
   GGA_COMPAT  = T    GGA compatible to vasp.4.4-vasp.4.6
   LMAXPAW     = -100 max onsite density
   LMAXMIX     =    2 max onsite mixed and CHGCAR
   VOSKOWN=      0    Vosko Wilk Nusair interpolation
   ROPT   =    0.00000   0.00000   0.00000   0.00000
 Ionic relaxation
   EDIFFG = -.3E-01   stopping-criterion for IOM
   NSW    =      0    number of steps for IOM
   NBLOCK =      1;   KBLOCK =      1    inner block; outer block 
   IBRION =     -1    ionic relax: 0-MD 1-quasi-New 2-CG
   NFREE  =      1    steps in history (QN), initial steepest desc. (CG)
   ISIF   =      2    stress and relaxation
   IWAVPR =     10    prediction:  0-non 1-charg 2-wave 3-comb
   ISYM   =      3    0-nonsym 1-usesym 2-fastsym
   LCORR  =      T    Harris-Foulkes like correction to forces

   POTIM  = 0.5000    time-step for ionic-motion
   TEIN   =    0.0    initial temperature
   TEBEG  =    0.0;   TEEND  =   0.0 temperature during run
   SMASS  =  -3.00    Nose mass-parameter (am)
   estimated Nose-frequenzy (Omega)   =  0.10E-29 period in steps =****** mass=  -0.385E-26a.u.
   SCALEE = 1.0000    scale energy and forces
   NPACO  =    256;   APACO  = 16.0  distance and # of slots for P.C.
   PSTRESS=    0.0 pullay stress

  Mass of Ions in am
   POMASS =  12.01 14.00 58.69 55.85
  Ionic Valenz
   ZVAL   =   4.00  5.00 10.00  8.00
  Atomic Wigner-Seitz radii
   RWIGS  =  -1.00 -1.00 -1.00 -1.00
  virtual crystal weights 
   VCA    =   1.00  1.00  1.00  1.00
   NELECT =     249.0000    total number of electrons
   NUPDOWN=      -1.0000    fix difference up-down

 DOS related values:
   EMIN   =  10.00;   EMAX   =-10.00  energy-range for DOS
   EFERMI =   0.00
   ISMEAR =     0;   SIGMA  =   0.10  broadening in eV -4-tet -1-fermi 0-gaus

 Electronic relaxation 2 (details)
   IALGO  =     53    algorithm
   LDIAG  =      T    sub-space diagonalisation (order eigenvalues)
   LSUBROT=      F    optimize rotation matrix (better conditioning)
   TURBO    =      0    0=normal 1=particle mesh
   IRESTART =      0    0=no restart 2=restart with 2 vectors
   NREBOOT  =      0    no. of reboots
   NMIN     =      0    reboot dimension
   EREF     =   0.00    reference energy to select bands
   IMIX   =      4    mixing-type and parameters
     AMIX     =   0.40;   BMIX     =  1.00
     AMIX_MAG =   1.60;   BMIX_MAG =  1.00
     AMIN     =   0.10
     WC   =   100.;   INIMIX=   1;  MIXPRE=   1;  MAXMIX= -45

 Intra band minimization:
   WEIMIN = 0.0000     energy-eigenvalue tresh-hold
   EBREAK =  0.16E-06  absolut break condition
   DEPER  =   0.30     relativ break condition  

   TIME   =   0.20     timestep for ELM

  volume/ion in A,a.u.               =      54.77       369.63
  Fermi-wavevector in a.u.,A,eV,Ry     =   0.700606  1.323954  6.678407  0.490849
  Thomas-Fermi vector in A             =   1.784805
 
 Write flags
   LWAVE        =      T    write WAVECAR
   LDOWNSAMPLE  =      F    k-point downsampling of WAVECAR
   LCHARG       =      T    write CHGCAR
   LVTOT        =      F    write LOCPOT, total local potential
   LVHAR        =      F    write LOCPOT, Hartree potential only
   LELF         =      F    write electronic localiz. function (ELF)
   LORBIT       =     11    0 simple, 1 ext, 2 COOP (PROOUT), +10 PAW based schemes


 Dipole corrections
   LMONO  =      F    monopole corrections only (constant potential shift)
   LDIPOL =      T    correct potential (dipole corrections)
   IDIPOL =      3    1-x, 2-y, 3-z, 4-all directions 
   EPSILON=  1.0000000 bulk dielectric constant

 Exchange correlation treatment:
   GGA     =    PE    GGA type
   LEXCH   =     8    internal setting for exchange type
   VOSKOWN=      0    Vosko Wilk Nusair interpolation
   EXXOEP  =     0    0=HF, 1=EXX-LHF (local Hartree Fock) 2=EXX OEP
   LHFCALC =     T    Hartree Fock is set to
   LSYMGRAD=     F    symmetrize gradient (conserves proper symmetry)
   PRECFOCK=normal    Normal, Fast or Accurate (Low or Medium for compatibility)
   LRHFCALC=     F    long range Hartree Fock
   LRSCOR  =     F    long range correlation only (use DFT for short range part)
   LTHOMAS =     F    Thomas Fermi screening in HF
   LMODELHF=     F    short range full HF, long range fraction AEXX
   ENCUT4O =  -1.0   cutoff for four orbital integrals eV
   LMAXFOCK=     4    L truncation for augmentation on plane wave grid
   LMAXFOCKAE=  -1    L truncation for all-electron charge restoration on plane wave grid
   NMAXFOCKAE=   1    number of basis functions for all-electron charge restoration
   LFOCKAEDFT=     F  apply the AE augmentation even for DFT
   NKREDX  =     1    reduce k-point grid by
   NKREDY  =     1    reduce k-point grid by
   NKREDZ  =     1    reduce k-point grid by
   SHIFTRED=     F    shift reduced grid of Gamma
   HFKIDENT=     F    idential grid for each k-point
   ODDONLY =     F    use only odd q-grid points
   EVENONLY=     F    use only even q-grid points
   HFALPHA =   -1.0000 decay constant for conv. correction
   MCALPHA =    0.0000 extent of test-charge in conv. correction in multipole expansion
   AEXX    =    0.2500 exact exchange contribution
   HFSCREEN=    0.2000 screening length (either q_TF or 0.3 A-1)
   HFSCREENC=   0.2000 screening length for correlation (either q_TF or 0.3 A-1)
   HFRCUT  =    0.0000 spherical cutoff for potential kernel
   ALDAX   =    0.7500 LDA exchange part
   AGGAX   =    0.7500 GGA exchange part
   ALDAC   =    1.0000 LDA correlation
   AGGAC   =    1.0000 GGA correlation
   ENCUTFOCK=  -1.0 apply spherical cutoff to Coloumb kernel
   NBANDSGWLOW=     1    first orbital included in HF term
   NBLOCK_FOCK=    64    blocking factor in FOCK_ACC
 Linear response parameters
   LEPSILON=     F    determine dielectric tensor
   LRPA    =     F    only Hartree local field effects (RPA)
   LNABLA  =     F    use nabla operator in PAW spheres
   LVEL    =     F    velocity operator in full k-point grid
   LINTERFAST=   F  fast interpolation
   KINTER  =     0    interpolate to denser k-point grid
   CSHIFT  =0.1000    complex shift for real part using Kramers Kronig
   OMEGAMAX=  -1.0    maximum frequency
   DEG_THRESHOLD= 0.2000000E-02 threshold for treating states as degnerate
   RTIME   =   -0.100 relaxation time in fs
  (WPLASMAI=    0.000 imaginary part of plasma frequency in eV, 0.658/RTIME)
   DFIELD  = 0.0000000 0.0000000 0.0000000 field for delta impulse in time
 
 Orbital magnetization related:
   ORBITALMAG=     F  switch on orbital magnetization
   LCHIMAG   =     F  perturbation theory with respect to B field
   DQ        =  0.001000  dq finite difference perturbation B field
   LLRAUG    =     F  two centre corrections for induced B field



--------------------------------------------------------------------------------------------------------


 Static calculation
 charge density and potential will be updated during run
 spin polarized calculation
 Conjugate gradient for all bands (Freysoldt, et al. PRB 79, 241103 (2009))
 perform sub-space diagonalisation
    before iterative eigenvector-optimisation
 modified Broyden-mixing scheme, WC =      100.0
 initial mixing is a Kerker type mixing with AMIX =  0.4000 and BMIX =      1.0000
 Hartree-type preconditioning will be used
 using additional bands           33
 reciprocal scheme for non local part
 use partial core corrections
 no Harris-corrections to forces 
 use gradient corrections 
 use of overlap-Matrix (Vanderbilt PP)
 Gauss-broadening in eV      SIGMA  =   0.10


--------------------------------------------------------------------------------------------------------


  energy-cutoff  :      500.00
  volume of cell :     3176.89
      direct lattice vectors                 reciprocal lattice vectors
    12.974100000  0.000000000  0.000000000     0.077076637 -0.000061074 -0.000016141
     0.009697377 12.238296158  0.000000000     0.000000000  0.081710721 -0.000003124
     0.004190466  0.000764932 20.007999547     0.000000000  0.000000000  0.049980009

  length of vectors
    12.974100000 12.238300000 20.008000000     0.077076663  0.081710721  0.049980009


 
 old parameters found on file WAVECAR:
  energy-cutoff  :      500.00
  volume of cell :     3176.89
      direct lattice vectors                 reciprocal lattice vectors
    12.974100000  0.000000000  0.000000000     0.077076637 -0.000061074 -0.000016141
     0.009697377 12.238296158  0.000000000     0.000000000  0.081710721 -0.000003124
     0.004190466  0.000764932 20.007999547     0.000000000  0.000000000  0.049980009

  length of vectors

 
 k-points in units of 2pi/SCALE and weight: KPOINTS created by Atomic Simulation Env
   0.01926916  0.02041241 -0.00000482       0.500
  -0.01926916  0.02044295  0.00000325       0.500
 
 k-points in reciprocal lattice and weights: KPOINTS created by Atomic Simulation Env
   0.25000000  0.25000000  0.00000000       0.500
  -0.25000000  0.25000000  0.00000000       0.500
 
 position of ions in fractional coordinates (direct lattice) 
   0.22827578  0.99996947  0.49980389
   0.05855712  0.09978956  0.49996740
   0.11599412  0.99989192  0.49992846
   0.28278002  0.10442175  0.49959030
   0.22388382  0.20563746  0.49956308
   0.05138545  0.29859221  0.50004429
   0.11190332  0.20111542  0.49986882
   0.21085150  0.39901647  0.49961286
   0.04841490  0.49957638  0.50025226
   0.10312704  0.39939912  0.50005310
   0.26488283  0.49912378  0.49933802
   0.21061906  0.59963169  0.49980064
   0.05153961  0.70084880  0.50014204
   0.10308471  0.59967781  0.50017165
   0.22346396  0.79428524  0.49986138
   0.05858748  0.90017584  0.50001692
   0.11197030  0.79862826  0.50003626
   0.28278134  0.89531732  0.49982617
   0.55806535  0.00020511  0.50001207
   0.39470788  0.10505117  0.49955237
   0.44784385  0.00027768  0.49984958
   0.61373589  0.10029231  0.49995440
   0.55770433  0.20002333  0.49959573
   0.61223099  0.30241513  0.49955863
   0.60670928  0.49951623  0.49950042
   0.61347651  0.69819277  0.49979565
   0.55875464  0.80061086  0.49992919
   0.39487335  0.89588936  0.49982779
   0.61429268  0.90019606  0.50011131
   0.89119000  0.00005314  0.50008306
   0.72405805  0.09968611  0.50008915
   0.78047312  0.00015559  0.50013053
   0.94693913  0.09987569  0.50007933
   0.88860533  0.19882878  0.50011828
   0.72146046  0.29960345  0.49988561
   0.77822511  0.19933078  0.50006566
   0.94176201  0.29913548  0.50014075
   0.88525304  0.39946883  0.50015187
   0.71872337  0.49979487  0.49985096
   0.77556838  0.40015574  0.49997109
   0.93977773  0.49970769  0.50022876
   0.88540789  0.60013292  0.50011852
   0.72231503  0.70063190  0.49994952
   0.77576995  0.59954964  0.49997544
   0.94206166  0.70050626  0.50009708
   0.88903651  0.80114084  0.50003248
   0.72451341  0.90061200  0.50012073
   0.77884043  0.80084934  0.50004273
   0.94703926  0.90013632  0.50003771
   0.27099848  0.30657133  0.49929663
   0.27064828  0.69247112  0.49962374
   0.45129845  0.20173845  0.49928068
   0.55515089  0.39968337  0.49924511
   0.36812508  0.49930495  0.49861853
   0.55636605  0.60071153  0.49944711
   0.45206498  0.79910287  0.49973745
   0.41161873  0.35362046  0.49887112
   0.41264205  0.64458206  0.49910570
 
 position of ions in cartesian coordinates  (Angst):
   2.97346427 12.23830481 10.00007605
   0.76278878  1.22163664 10.00334760
   1.51671062 12.23735586 10.00256843
   3.67192244  1.27832645  9.99580259
   2.90877859  2.51703427  9.99525788
   0.67167099  3.65464235 10.00488587
   1.45588982  2.46169248 10.00137507
   2.74157141  4.88366387  9.99625383
   0.63508067  6.11434629 10.00904698
   1.34394906  4.88834728 10.00506216
   3.44354898  6.10880660  9.99075478
   2.74050206  7.33885249 10.00001094
   0.67757234  8.57757776 10.00684166
   1.34534261  7.33941724 10.00743414
   2.90904087  9.72108041 10.00122631
   0.77094450 11.01700105 10.00433840
   1.46255381  9.77423164 10.00472524
   3.67961007 10.95754087 10.00052170
   7.24249295  0.00289269 10.00424136
   5.12409155  1.28602943  9.99504351
   5.81246817  0.00378073 10.00099009
   7.96573847  1.22778944 10.00308750
   7.23974505  2.44832687  9.99591106
   7.94817208  3.70142801  9.99516886
   7.87844402  6.11360959  9.99400418
   7.96817055  8.54507221  9.99991111
   7.25919737  9.79849524 10.00258298
   5.13390868 10.96454163 10.00055413
   7.98071990 11.01724848 10.00622688
  11.56448429  0.00103293 10.00566168
   9.39706385  1.22037068 10.00578351
  10.12803360  0.00228673 10.00661150
  12.28874707  1.22269078 10.00558707
  11.53287831  2.43370801 10.00636626
   9.36530028  3.66701817 10.00171112
  10.10079883  2.43985168 10.00531349
  12.22351108  3.66129120 10.00681594
  11.49133114  4.88920048 10.00703836
   9.33173016  6.11701996 10.00101769
  10.06827734  4.89760684 10.00342137
  12.19971232  6.11595339 10.00857689
  11.49528596  7.34498696 10.00637116
   9.38027674  8.57492311 10.00298975
  10.07282613  7.33784847 10.00350839
  12.23129095  8.57338557 10.00594212
  11.54431294  9.80498130 10.00464965
   9.41073879 11.02233896 10.00641530
  10.11461520  9.80141391 10.00485474
  12.29780645 11.01651733 10.00475418
   3.52102655  3.75229271  9.98992670
   3.52022660  8.47504879  9.99647158
   5.85923974  2.46931677  9.98960753
   7.20855109  4.89182530  9.98889584
   4.78302294  6.11102321  9.97635936
   7.22626707  7.35206765  9.99293749
   5.87497962  9.78003979  9.99874671
   5.34590227  4.32809349  9.98141322
   5.36200151  7.88896798  9.98610664
 


--------------------------------------------------------------------------------------------------------


 k-point  1 :   0.2500 0.2500 0.0000  plane waves:   80635
 k-point  2 :  -0.2500 0.2500 0.0000  plane waves:   80629

 maximum and minimum number of plane-waves per node :      2052     1987

 maximum number of plane-waves:     80635
 maximum index in each direction: 
   IXMAX=   23   IYMAX=   22   IZMAX=   36
   IXMIN=  -23   IYMIN=  -22   IZMIN=  -36


 parallel 3D FFT for wavefunctions:
    minimum data exchange during FFTs selected (reduces bandwidth)
 parallel 3D FFT for charge:
    minimum data exchange during FFTs selected (reduces bandwidth)


 FFT grid for exact exchange (Hartree Fock) 
  NGX = 72; NGY = 70; NGZ =112

 
 Radii for the augmentation spheres in the non-local exchange
 for species   1 augmentation radius   0.874 (default was   0.699)
       energy cutoff for augmentation   2000.0
 for species   2 augmentation radius   0.886 (default was   0.709)
       energy cutoff for augmentation   2000.0
 for species   3 augmentation radius   1.224 (default was   0.979)
       energy cutoff for augmentation   2000.0
 for species   4 augmentation radius   1.263 (default was   1.010)
       energy cutoff for augmentation   2000.0

 real space projection operators:
  total allocation   :       2481.48 KBytes
  max/ min on nodes  :        108.30         17.86

 Maximum index for augmentation-charges in exchange           79
  SETUP_FOCK is finished

 total amount of memory used by VASP MPI-rank0   139739. kBytes
=======================================================================

   base      :      30000. kBytes
   nonl-proj :       4284. kBytes
   fftplans  :      11188. kBytes
   grid      :      29312. kBytes
   one-center:         62. kBytes
   HF        :         23. kBytes
   nonlr-proj:       1591. kBytes
   wavefun   :      63279. kBytes
 
     INWAV:  cpu time    2.8247: real time    5.5495
 Broyden mixing: mesh for mixing (old mesh)
   NGX = 47   NGY = 45   NGZ = 73
  (NGX  =192   NGY  =180   NGZ  =300)
  gives a total of 154395 points

 charge density for first step will be calculated from the start-wavefunctions


--------------------------------------------------------------------------------------------------------


 Maximum index for augmentation-charges          702 (set IRDMAX)


--------------------------------------------------------------------------------------------------------


 initial charge from wavefunction
 First call to EWALD:  gamma=   0.121
 Maximum number of real-space cells 3x 3x 2
 Maximum number of reciprocal cells 2x 2x 4

    FEWALD:  cpu time    0.0026: real time    0.0026


--------------------------------------- Iteration      1(   1)  ---------------------------------------


    POTLOK:  cpu time    0.8203: real time    0.8253
    SETDIJ:  cpu time    0.9517: real time    0.9546
    TRIAL :  cpu time  164.6273: real time  165.1970
    CORREC:  cpu time    0.0008: real time    0.0008
    CHARGE:  cpu time    0.7361: real time    0.7380
    --------------------------------------------
      LOOP:  cpu time  167.1568: real time  167.7667

 eigenvalue-minimisations  :     0
 total energy-change (2. order) :-0.6059095E+03  (-0.4717994E+00)
 number of electron     249.0000027 magnetization       2.6025793
 augmentation part       16.4848929 magnetization       1.5575147

 DIPCOR: dipole corrections for dipol
 direction  3 min pos     1,
 dipolmoment          -0.000000     -0.000000     -0.001526 electrons x Angstroem
 Tr[quadrupol]     -6723.773108

 energy correction for charged system         0.000000 eV
 dipol+quadrupol energy correction            0.000000 eV
 added-field ion interaction          0.000000 eV  (added to PSCEN)


 Free energy of the ion-electron system (eV)
  ---------------------------------------------------
  alpha Z        PSCENC =       101.46369953
  Ewald energy   TEWEN  =     41003.84608119
  -Hartree energ DENC   =    -50198.73488467
  -exchange      EXHF   =       573.64556904
  -V(xc)+E(xc)   XCENC  =       652.65281571
  PAW double counting   =     27187.65376646   -27289.86249531
  entropy T*S    EENTRO =        -0.03597949
  eigenvalues    EBANDS =     -3256.27413643
  atomic energy  EATOM  =     10619.73893706
  ---------------------------------------------------
  free energy    TOTEN  =      -605.90949954 eV

  energy without entropy =     -605.87352005  energy(sigma->0) =     -605.89150979
  exchange ACFDT corr.  =        -0.03472510  see jH, gK, PRB 81, 115126


--------------------------------------------------------------------------------------------------------




--------------------------------------- Iteration      1(   2)  ---------------------------------------


    POTLOK:  cpu time    0.8345: real time    0.8373
    SETDIJ:  cpu time    0.9554: real time    0.9586
    TRIAL :  cpu time  163.8743: real time  164.3790
    CORREC:  cpu time    0.0008: real time    0.0008
    CHARGE:  cpu time    0.7282: real time    0.7347
    --------------------------------------------
      LOOP:  cpu time  166.3942: real time  166.9145

 eigenvalue-minimisations  :     0
 total energy-change (2. order) :-0.3914302E+00  (-0.4238979E+00)
 number of electron     249.0000027 magnetization       2.6652727
 augmentation part       16.4669820 magnetization       1.5897465

 DIPCOR: dipole corrections for dipol
 direction  3 min pos     1,
 dipolmoment          -0.000000     -0.000000     -0.002065 electrons x Angstroem
 Tr[quadrupol]     -6723.621441

 energy correction for charged system         0.000000 eV
 dipol+quadrupol energy correction            0.000000 eV
 added-field ion interaction          0.000000 eV  (added to PSCEN)


 Free energy of the ion-electron system (eV)
  ---------------------------------------------------
  alpha Z        PSCENC =       101.46369958
  Ewald energy   TEWEN  =     41003.84608119
  -Hartree energ DENC   =    -50187.86464076
  -exchange      EXHF   =       573.59090451
  -V(xc)+E(xc)   XCENC  =       652.33237082
  PAW double counting   =     27323.09346012   -27425.81436834
  entropy T*S    EENTRO =        -0.03211179
  eigenvalues    EBANDS =     -3266.65139441
  atomic energy  EATOM  =     10619.73893706
  ---------------------------------------------------
  free energy    TOTEN  =      -606.30092972 eV

  energy without entropy =     -606.26881793  energy(sigma->0) =     -606.28487382
  exchange ACFDT corr.  =        -0.03132071  see jH, gK, PRB 81, 115126


--------------------------------------------------------------------------------------------------------




--------------------------------------- Iteration      1(   3)  ---------------------------------------


    POTLOK:  cpu time    0.8409: real time    0.8461
    SETDIJ:  cpu time    0.9589: real time    0.9613
    TRIAL :  cpu time  163.5863: real time  164.0913
    CORREC:  cpu time    0.0008: real time    0.0008
    CHARGE:  cpu time    0.7338: real time    0.7356
    --------------------------------------------
      LOOP:  cpu time  166.1225: real time  166.6399

 eigenvalue-minimisations  :     0
 total energy-change (2. order) :-0.3321723E+00  (-0.2554930E+00)
 number of electron     249.0000027 magnetization       2.7287139
 augmentation part       16.4414462 magnetization       1.6165142

 DIPCOR: dipole corrections for dipol
 direction  3 min pos     1,
 dipolmoment          -0.000000     -0.000000     -0.002264 electrons x Angstroem
 Tr[quadrupol]     -6723.457838

 energy correction for charged system         0.000000 eV
 dipol+quadrupol energy correction            0.000000 eV
 added-field ion interaction          0.000000 eV  (added to PSCEN)


 Free energy of the ion-electron system (eV)
  ---------------------------------------------------
  alpha Z        PSCENC =       101.46369961
  Ewald energy   TEWEN  =     41003.84608119
  -Hartree energ DENC   =    -50173.49809134
  -exchange      EXHF   =       573.56913051
  -V(xc)+E(xc)   XCENC  =       651.94393494
  PAW double counting   =     27489.23925649   -27591.72960290
  entropy T*S    EENTRO =        -0.02788165
  eigenvalues    EBANDS =     -3281.17433583
  atomic energy  EATOM  =     10619.73893706
  ---------------------------------------------------
  free energy    TOTEN  =      -606.63310206 eV

  energy without entropy =     -606.60522041  energy(sigma->0) =     -606.61916123
  exchange ACFDT corr.  =        -0.02642969  see jH, gK, PRB 81, 115126


--------------------------------------------------------------------------------------------------------




--------------------------------------- Iteration      1(   4)  ---------------------------------------


    POTLOK:  cpu time    0.8451: real time    0.8478
    SETDIJ:  cpu time    0.9568: real time    0.9592
    TRIAL :  cpu time  163.4929: real time  164.0005
    CORREC:  cpu time    0.0008: real time    0.0008
    CHARGE:  cpu time    0.7321: real time    0.7341
    --------------------------------------------
      LOOP:  cpu time  166.0297: real time  166.5476

 eigenvalue-minimisations  :     0
 total energy-change (2. order) :-0.1979667E+00  (-0.1463922E+00)
 number of electron     249.0000027 magnetization       2.7859328
 augmentation part       16.4350977 magnetization       1.6349204

 DIPCOR: dipole corrections for dipol
 direction  3 min pos     1,
 dipolmoment          -0.000000     -0.000000     -0.002115 electrons x Angstroem
 Tr[quadrupol]     -6723.388777

 energy correction for charged system         0.000000 eV
 dipol+quadrupol energy correction            0.000000 eV
 added-field ion interaction          0.000000 eV  (added to PSCEN)


 Free energy of the ion-electron system (eV)
  ---------------------------------------------------
  alpha Z        PSCENC =       101.46369959
  Ewald energy   TEWEN  =     41003.84608119
  -Hartree energ DENC   =    -50165.12110117
  -exchange      EXHF   =       573.70991424
  -V(xc)+E(xc)   XCENC  =       651.73486467
  PAW double counting   =     27630.32398281   -27732.24169628
  entropy T*S    EENTRO =        -0.02367091
  eigenvalues    EBANDS =     -3290.25786924
  atomic energy  EATOM  =     10619.73893706
  ---------------------------------------------------
  free energy    TOTEN  =      -606.83106880 eV

  energy without entropy =     -606.80739789  energy(sigma->0) =     -606.81923335
  exchange ACFDT corr.  =        -0.02185863  see jH, gK, PRB 81, 115126


--------------------------------------------------------------------------------------------------------




--------------------------------------- Iteration      1(   5)  ---------------------------------------


    POTLOK:  cpu time    0.8575: real time    0.8601
    SETDIJ:  cpu time    0.9550: real time    0.9574
    TRIAL :  cpu time  163.7023: real time  164.1975
    CORREC:  cpu time    0.0008: real time    0.0008
    CHARGE:  cpu time    0.7252: real time    0.7318
    --------------------------------------------
      LOOP:  cpu time  166.2433: real time  166.7528

 eigenvalue-minimisations  :     0
 total energy-change (2. order) :-0.1187424E+00  (-0.9412972E-01)
 number of electron     249.0000027 magnetization       2.8340657
 augmentation part       16.4442044 magnetization       1.6464038

 DIPCOR: dipole corrections for dipol
 direction  3 min pos     1,
 dipolmoment          -0.000000     -0.000000     -0.001892 electrons x Angstroem
 Tr[quadrupol]     -6723.417328

 energy correction for charged system         0.000000 eV
 dipol+quadrupol energy correction            0.000000 eV
 added-field ion interaction          0.000000 eV  (added to PSCEN)


 Free energy of the ion-electron system (eV)
  ---------------------------------------------------
  alpha Z        PSCENC =       101.46369956
  Ewald energy   TEWEN  =     41003.84608119
  -Hartree energ DENC   =    -50165.45692304
  -exchange      EXHF   =       574.00659113
  -V(xc)+E(xc)   XCENC  =       651.75827437
  PAW double counting   =     27733.86280002   -27835.62109781
  entropy T*S    EENTRO =        -0.01972961
  eigenvalues    EBANDS =     -3290.52450278
  atomic energy  EATOM  =     10619.73893706
  ---------------------------------------------------
  free energy    TOTEN  =      -606.94981120 eV

  energy without entropy =     -606.93008159  energy(sigma->0) =     -606.93994639
  exchange ACFDT corr.  =        -0.02306208  see jH, gK, PRB 81, 115126


--------------------------------------------------------------------------------------------------------




--------------------------------------- Iteration      1(   6)  ---------------------------------------


    POTLOK:  cpu time    0.8422: real time    0.8458
    SETDIJ:  cpu time    0.9577: real time    0.9602
    TRIAL :  cpu time  163.7552: real time  164.3077
    CORREC:  cpu time    0.0008: real time    0.0008
    CHARGE:  cpu time    0.7317: real time    0.7338
    --------------------------------------------
      LOOP:  cpu time  166.2907: real time  166.8545

 eigenvalue-minimisations  :     0
 total energy-change (2. order) :-0.7882054E-01  (-0.6138191E-01)
 number of electron     249.0000027 magnetization       2.8731609
 augmentation part       16.4548556 magnetization       1.6533037

 DIPCOR: dipole corrections for dipol
 direction  3 min pos     1,
 dipolmoment          -0.000000     -0.000000     -0.001753 electrons x Angstroem
 Tr[quadrupol]     -6723.482940

 energy correction for charged system         0.000000 eV
 dipol+quadrupol energy correction            0.000000 eV
 added-field ion interaction          0.000000 eV  (added to PSCEN)


 Free energy of the ion-electron system (eV)
  ---------------------------------------------------
  alpha Z        PSCENC =       101.46369955
  Ewald energy   TEWEN  =     41003.84608119
  -Hartree energ DENC   =    -50170.06158602
  -exchange      EXHF   =       574.33872180
  -V(xc)+E(xc)   XCENC  =       651.89356010
  PAW double counting   =     27802.66268851   -27904.61986041
  entropy T*S    EENTRO =        -0.01616895
  eigenvalues    EBANDS =     -3286.27114391
  atomic energy  EATOM  =     10619.73893706
  ---------------------------------------------------
  free energy    TOTEN  =      -607.02863174 eV

  energy without entropy =     -607.01246279  energy(sigma->0) =     -607.02054726
  exchange ACFDT corr.  =        -0.01832397  see jH, gK, PRB 81, 115126


--------------------------------------------------------------------------------------------------------




--------------------------------------- Iteration      1(   7)  ---------------------------------------


    POTLOK:  cpu time    0.8415: real time    0.8449
    SETDIJ:  cpu time    0.9556: real time    0.9581
    TRIAL :  cpu time  164.8650: real time  165.5883
    CORREC:  cpu time    0.0008: real time    0.0008
    CHARGE:  cpu time    0.7315: real time    0.7336
    --------------------------------------------
      LOOP:  cpu time  167.3975: real time  168.1324

 eigenvalue-minimisations  :     0
 total energy-change (2. order) :-0.5231126E-01  (-0.4042174E-01)
 number of electron     249.0000027 magnetization       2.9042135
 augmentation part       16.4606336 magnetization       1.6574255

 DIPCOR: dipole corrections for dipol
 direction  3 min pos     1,
 dipolmoment          -0.000000     -0.000000     -0.001699 electrons x Angstroem
 Tr[quadrupol]     -6723.538123

 energy correction for charged system         0.000000 eV
 dipol+quadrupol energy correction            0.000000 eV
 added-field ion interaction          0.000000 eV  (added to PSCEN)


 Free energy of the ion-electron system (eV)
  ---------------------------------------------------
  alpha Z        PSCENC =       101.46369954
  Ewald energy   TEWEN  =     41003.84608119
  -Hartree energ DENC   =    -50174.39722876
  -exchange      EXHF   =       574.61021804
  -V(xc)+E(xc)   XCENC  =       652.02338334
  PAW double counting   =     27844.14337229   -27946.31880623
  entropy T*S    EENTRO =        -0.01304033
  eigenvalues    EBANDS =     -3282.17443052
  atomic energy  EATOM  =     10619.73893706
  ---------------------------------------------------
  free energy    TOTEN  =      -607.08094300 eV

  energy without entropy =     -607.06790267  energy(sigma->0) =     -607.07442283
  exchange ACFDT corr.  =        -0.01428671  see jH, gK, PRB 81, 115126


--------------------------------------------------------------------------------------------------------




--------------------------------------- Iteration      1(   8)  ---------------------------------------


    POTLOK:  cpu time    0.8381: real time    0.8405
    SETDIJ:  cpu time    0.9541: real time    0.9567
    TRIAL :  cpu time  163.7553: real time  164.2560
    CORREC:  cpu time    0.0011: real time    0.0011
    CHARGE:  cpu time    0.7315: real time    0.7335
    --------------------------------------------
      LOOP:  cpu time  166.2824: real time  166.7935

 eigenvalue-minimisations  :     0
 total energy-change (2. order) :-0.3510467E-01  (-0.2740130E-01)
 number of electron     249.0000028 magnetization       2.9283091
 augmentation part       16.4625388 magnetization       1.6598116

 DIPCOR: dipole corrections for dipol
 direction  3 min pos     1,
 dipolmoment          -0.000000     -0.000000     -0.001688 electrons x Angstroem
 Tr[quadrupol]     -6723.567884

 energy correction for charged system         0.000000 eV
 dipol+quadrupol energy correction            0.000000 eV
 added-field ion interaction          0.000000 eV  (added to PSCEN)


 Free energy of the ion-electron system (eV)
  ---------------------------------------------------
  alpha Z        PSCENC =       101.46369954
  Ewald energy   TEWEN  =     41003.84608119
  -Hartree energ DENC   =    -50176.75485565
  -exchange      EXHF   =       574.79353813
  -V(xc)+E(xc)   XCENC  =       652.10221327
  PAW double counting   =     27866.84426532   -27969.11288364
  entropy T*S    EENTRO =        -0.01037621
  eigenvalues    EBANDS =     -3280.02400256
  atomic energy  EATOM  =     10619.73893706
  ---------------------------------------------------
  free energy    TOTEN  =      -607.11604767 eV

  energy without entropy =     -607.10567146  energy(sigma->0) =     -607.11085956
  exchange ACFDT corr.  =        -0.00855729  see jH, gK, PRB 81, 115126


--------------------------------------------------------------------------------------------------------




--------------------------------------- Iteration      1(   9)  ---------------------------------------


    POTLOK:  cpu time    0.8342: real time    0.8379
    SETDIJ:  cpu time    0.9551: real time    0.9575
    TRIAL :  cpu time  163.6869: real time  164.1793
    CORREC:  cpu time    0.0008: real time    0.0008
    CHARGE:  cpu time    0.7307: real time    0.7327
    --------------------------------------------
      LOOP:  cpu time  166.2104: real time  166.7140

 eigenvalue-minimisations  :     0
 total energy-change (2. order) :-0.2407537E-01  (-0.1880311E-01)
 number of electron     249.0000028 magnetization       2.9465542
 augmentation part       16.4637392 magnetization       1.6611501

 DIPCOR: dipole corrections for dipol
 direction  3 min pos     1,
 dipolmoment          -0.000000     -0.000000     -0.001690 electrons x Angstroem
 Tr[quadrupol]     -6723.577558

 energy correction for charged system         0.000000 eV
 dipol+quadrupol energy correction            0.000000 eV
 added-field ion interaction          0.000000 eV  (added to PSCEN)


 Free energy of the ion-electron system (eV)
  ---------------------------------------------------
  alpha Z        PSCENC =       101.46369954
  Ewald energy   TEWEN  =     41003.84608119
  -Hartree energ DENC   =    -50177.48655018
  -exchange      EXHF   =       574.90585814
  -V(xc)+E(xc)   XCENC  =       652.13644027
  PAW double counting   =     27878.35485913   -27980.63528012
  entropy T*S    EENTRO =        -0.00818263
  eigenvalues    EBANDS =     -3279.45379186
  atomic energy  EATOM  =     10619.73893706
  ---------------------------------------------------
  free energy    TOTEN  =      -607.14012304 eV

  energy without entropy =     -607.13194041  energy(sigma->0) =     -607.13603172
  exchange ACFDT corr.  =        -0.00650356  see jH, gK, PRB 81, 115126


--------------------------------------------------------------------------------------------------------




--------------------------------------- Iteration      1(  10)  ---------------------------------------


    POTLOK:  cpu time    0.8317: real time    0.8354
    SETDIJ:  cpu time    0.9547: real time    0.9572
    TRIAL :  cpu time  163.5391: real time  164.0487
    CORREC:  cpu time    0.0008: real time    0.0008
    CHARGE:  cpu time    0.7292: real time    0.7313
    --------------------------------------------
      LOOP:  cpu time  166.0589: real time  166.5798

 eigenvalue-minimisations  :     0
 total energy-change (2. order) :-0.1670296E-01  (-0.1314450E-01)
 number of electron     249.0000028 magnetization       2.9600936
 augmentation part       16.4656125 magnetization       1.6618716

 DIPCOR: dipole corrections for dipol
 direction  3 min pos     1,
 dipolmoment          -0.000000     -0.000000     -0.001688 electrons x Angstroem
 Tr[quadrupol]     -6723.578517

 energy correction for charged system         0.000000 eV
 dipol+quadrupol energy correction            0.000000 eV
 added-field ion interaction          0.000000 eV  (added to PSCEN)


 Free energy of the ion-electron system (eV)
  ---------------------------------------------------
  alpha Z        PSCENC =       101.46369954
  Ewald energy   TEWEN  =     41003.84608119
  -Hartree energ DENC   =    -50177.55777418
  -exchange      EXHF   =       574.97710214
  -V(xc)+E(xc)   XCENC  =       652.14889363
  PAW double counting   =     27884.00672869   -27986.30607963
  entropy T*S    EENTRO =        -0.00642899
  eigenvalues    EBANDS =     -3279.46623180
  atomic energy  EATOM  =     10619.73893706
  ---------------------------------------------------
  free energy    TOTEN  =      -607.15682599 eV

  energy without entropy =     -607.15039700  energy(sigma->0) =     -607.15361150
  exchange ACFDT corr.  =        -0.00490277  see jH, gK, PRB 81, 115126


--------------------------------------------------------------------------------------------------------




--------------------------------------- Iteration      1(  11)  ---------------------------------------


    POTLOK:  cpu time    0.8283: real time    0.8309
    SETDIJ:  cpu time    0.9538: real time    0.9563
    TRIAL :  cpu time  163.7192: real time  164.2135
    CORREC:  cpu time    0.0008: real time    0.0008
    CHARGE:  cpu time    0.7296: real time    0.7315
    --------------------------------------------
      LOOP:  cpu time  166.2345: real time  166.7391

 eigenvalue-minimisations  :     0
 total energy-change (2. order) :-0.1180713E-01  (-0.9377858E-02)
 number of electron     249.0000028 magnetization       2.9700095
 augmentation part       16.4676294 magnetization       1.6620785

 DIPCOR: dipole corrections for dipol
 direction  3 min pos     1,
 dipolmoment          -0.000000     -0.000000     -0.001678 electrons x Angstroem
 Tr[quadrupol]     -6723.578972

 energy correction for charged system         0.000000 eV
 dipol+quadrupol energy correction            0.000000 eV
 added-field ion interaction          0.000000 eV  (added to PSCEN)


 Free energy of the ion-electron system (eV)
  ---------------------------------------------------
  alpha Z        PSCENC =       101.46369954
  Ewald energy   TEWEN  =     41003.84608119
  -Hartree energ DENC   =    -50177.61091435
  -exchange      EXHF   =       575.02983062
  -V(xc)+E(xc)   XCENC  =       652.15622457
  PAW double counting   =     27886.95522708   -27989.30597888
  entropy T*S    EENTRO =        -0.00505768
  eigenvalues    EBANDS =     -3279.43531095
  atomic energy  EATOM  =     10619.73893706
  ---------------------------------------------------
  free energy    TOTEN  =      -607.16863312 eV

  energy without entropy =     -607.16357544  energy(sigma->0) =     -607.16610428
  exchange ACFDT corr.  =        -0.00368943  see jH, gK, PRB 81, 115126


--------------------------------------------------------------------------------------------------------




--------------------------------------- Iteration      1(  12)  ---------------------------------------


    POTLOK:  cpu time    0.8272: real time    0.8304
    SETDIJ:  cpu time    0.9551: real time    0.9576
    TRIAL :  cpu time  164.0378: real time  164.5258
    CORREC:  cpu time    0.0007: real time    0.0007
    CHARGE:  cpu time    0.7304: real time    0.7323
    --------------------------------------------
      LOOP:  cpu time  166.5540: real time  167.0527

 eigenvalue-minimisations  :     0
 total energy-change (2. order) :-0.8508300E-02  (-0.6833896E-02)
 number of electron     249.0000028 magnetization       2.9772183
 augmentation part       16.4690857 magnetization       1.6618136

 DIPCOR: dipole corrections for dipol
 direction  3 min pos     1,
 dipolmoment          -0.000000     -0.000000     -0.001664 electrons x Angstroem
 Tr[quadrupol]     -6723.581312

 energy correction for charged system         0.000000 eV
 dipol+quadrupol energy correction            0.000000 eV
 added-field ion interaction          0.000000 eV  (added to PSCEN)


 Free energy of the ion-electron system (eV)
  ---------------------------------------------------
  alpha Z        PSCENC =       101.46369954
  Ewald energy   TEWEN  =     41003.84608119
  -Hartree energ DENC   =    -50177.78417336
  -exchange      EXHF   =       575.07393674
  -V(xc)+E(xc)   XCENC  =       652.16358484
  PAW double counting   =     27888.85352081   -27991.26099324
  entropy T*S    EENTRO =        -0.00400184
  eigenvalues    EBANDS =     -3279.26667732
  atomic energy  EATOM  =     10619.73893706
  ---------------------------------------------------
  free energy    TOTEN  =      -607.17714142 eV

  energy without entropy =     -607.17313958  energy(sigma->0) =     -607.17514050
  exchange ACFDT corr.  =        -0.00278729  see jH, gK, PRB 81, 115126


--------------------------------------------------------------------------------------------------------




--------------------------------------- Iteration      1(  13)  ---------------------------------------


    POTLOK:  cpu time    0.8258: real time    0.8292
    SETDIJ:  cpu time    0.9543: real time    0.9567
    TRIAL :  cpu time  164.0117: real time  164.5234
    CORREC:  cpu time    0.0008: real time    0.0008
    CHARGE:  cpu time    0.7358: real time    0.7378
    --------------------------------------------
      LOOP:  cpu time  166.5312: real time  167.0542

 eigenvalue-minimisations  :     0
 total energy-change (2. order) :-0.6261346E-02  (-0.5109162E-02)
 number of electron     249.0000028 magnetization       2.9824435
 augmentation part       16.4698786 magnetization       1.6611590

 DIPCOR: dipole corrections for dipol
 direction  3 min pos     1,
 dipolmoment          -0.000000     -0.000000     -0.001651 electrons x Angstroem
 Tr[quadrupol]     -6723.584699

 energy correction for charged system         0.000000 eV
 dipol+quadrupol energy correction            0.000000 eV
 added-field ion interaction          0.000000 eV  (added to PSCEN)


 Free energy of the ion-electron system (eV)
  ---------------------------------------------------
  alpha Z        PSCENC =       101.46369954
  Ewald energy   TEWEN  =     41003.84608119
  -Hartree energ DENC   =    -50177.99179232
  -exchange      EXHF   =       575.11170805
  -V(xc)+E(xc)   XCENC  =       652.17033272
  PAW double counting   =     27890.52086294   -27992.96590584
  entropy T*S    EENTRO =        -0.00319723
  eigenvalues    EBANDS =     -3279.07332426
  atomic energy  EATOM  =     10619.73893706
  ---------------------------------------------------
  free energy    TOTEN  =      -607.18340277 eV

  energy without entropy =     -607.18020554  energy(sigma->0) =     -607.18180415
  exchange ACFDT corr.  =        -0.00212447  see jH, gK, PRB 81, 115126


--------------------------------------------------------------------------------------------------------




--------------------------------------- Iteration      1(  14)  ---------------------------------------


    POTLOK:  cpu time    0.8259: real time    0.8324
    SETDIJ:  cpu time    0.9546: real time    0.9570
    TRIAL :  cpu time  164.0449: real time  164.5548
    CORREC:  cpu time    0.0016: real time    0.0016
    CHARGE:  cpu time    0.7370: real time    0.7390
    --------------------------------------------
      LOOP:  cpu time  166.5666: real time  167.0906

 eigenvalue-minimisations  :     0
 total energy-change (2. order) :-0.4719690E-02  (-0.3892407E-02)
 number of electron     249.0000028 magnetization       2.9862358
 augmentation part       16.4703924 magnetization       1.6602035

 DIPCOR: dipole corrections for dipol
 direction  3 min pos     1,
 dipolmoment          -0.000000     -0.000000     -0.001640 electrons x Angstroem
 Tr[quadrupol]     -6723.587916

 energy correction for charged system         0.000000 eV
 dipol+quadrupol energy correction            0.000000 eV
 added-field ion interaction          0.000000 eV  (added to PSCEN)


 Free energy of the ion-electron system (eV)
  ---------------------------------------------------
  alpha Z        PSCENC =       101.46369954
  Ewald energy   TEWEN  =     41003.84608119
  -Hartree energ DENC   =    -50178.15901730
  -exchange      EXHF   =       575.14343314
  -V(xc)+E(xc)   XCENC  =       652.17532190
  PAW double counting   =     27892.27531783   -27994.73683774
  entropy T*S    EENTRO =        -0.00258729
  eigenvalues    EBANDS =     -3278.93186084
  atomic energy  EATOM  =     10619.73893706
  ---------------------------------------------------
  free energy    TOTEN  =      -607.18812246 eV

  energy without entropy =     -607.18553517  energy(sigma->0) =     -607.18682881
  exchange ACFDT corr.  =        -0.00164050  see jH, gK, PRB 81, 115126


--------------------------------------------------------------------------------------------------------




--------------------------------------- Iteration      1(  15)  ---------------------------------------


    POTLOK:  cpu time    0.8232: real time    0.8273
    SETDIJ:  cpu time    0.9556: real time    0.9589
    TRIAL :  cpu time  164.1840: real time  164.6859
    CORREC:  cpu time    0.0008: real time    0.0008
    CHARGE:  cpu time    0.7315: real time    0.7335
    --------------------------------------------
      LOOP:  cpu time  166.6978: real time  167.2120

 eigenvalue-minimisations  :     0
 total energy-change (2. order) :-0.3621335E-02  (-0.3024239E-02)
 number of electron     249.0000028 magnetization       2.9890044
 augmentation part       16.4709625 magnetization       1.6590553

 DIPCOR: dipole corrections for dipol
 direction  3 min pos     1,
 dipolmoment          -0.000000     -0.000000     -0.001629 electrons x Angstroem
 Tr[quadrupol]     -6723.590409

 energy correction for charged system         0.000000 eV
 dipol+quadrupol energy correction            0.000000 eV
 added-field ion interaction          0.000000 eV  (added to PSCEN)


 Free energy of the ion-electron system (eV)
  ---------------------------------------------------
  alpha Z        PSCENC =       101.46369954
  Ewald energy   TEWEN  =     41003.84608119
  -Hartree energ DENC   =    -50178.28320039
  -exchange      EXHF   =       575.16989129
  -V(xc)+E(xc)   XCENC  =       652.17872774
  PAW double counting   =     27894.20125419   -27996.67128055
  entropy T*S    EENTRO =        -0.00212492
  eigenvalues    EBANDS =     -3278.83326657
  atomic energy  EATOM  =     10619.73893706
  ---------------------------------------------------
  free energy    TOTEN  =      -607.19174379 eV

  energy without entropy =     -607.18961887  energy(sigma->0) =     -607.19068133
  exchange ACFDT corr.  =        -0.00128751  see jH, gK, PRB 81, 115126


--------------------------------------------------------------------------------------------------------




--------------------------------------- Iteration      1(  16)  ---------------------------------------


    POTLOK:  cpu time    0.8219: real time    0.8256
    SETDIJ:  cpu time    0.9546: real time    0.9574
    TRIAL :  cpu time  164.0298: real time  164.5375
    CORREC:  cpu time    0.0007: real time    0.0007
    CHARGE:  cpu time    0.7308: real time    0.7328
    --------------------------------------------
      LOOP:  cpu time  166.5403: real time  167.0595

 eigenvalue-minimisations  :     0
 total energy-change (2. order) :-0.2833080E-02  (-0.2397743E-02)
 number of electron     249.0000028 magnetization       2.9910461
 augmentation part       16.4716065 magnetization       1.6578107

 DIPCOR: dipole corrections for dipol
 direction  3 min pos     1,
 dipolmoment          -0.000000     -0.000000     -0.001619 electrons x Angstroem
 Tr[quadrupol]     -6723.592310

 energy correction for charged system         0.000000 eV
 dipol+quadrupol energy correction            0.000000 eV
 added-field ion interaction          0.000000 eV  (added to PSCEN)


 Free energy of the ion-electron system (eV)
  ---------------------------------------------------
  alpha Z        PSCENC =       101.46369953
  Ewald energy   TEWEN  =     41003.84608119
  -Hartree energ DENC   =    -50178.39449687
  -exchange      EXHF   =       575.19243744
  -V(xc)+E(xc)   XCENC  =       652.18141351
  PAW double counting   =     27896.23479072   -27998.71548803
  entropy T*S    EENTRO =        -0.00177270
  eigenvalues    EBANDS =     -3278.73982651
  atomic energy  EATOM  =     10619.73893706
  ---------------------------------------------------
  free energy    TOTEN  =      -607.19457687 eV

  energy without entropy =     -607.19280418  energy(sigma->0) =     -607.19369052
  exchange ACFDT corr.  =        -0.00102897  see jH, gK, PRB 81, 115126


--------------------------------------------------------------------------------------------------------




--------------------------------------- Iteration      1(  17)  ---------------------------------------


    POTLOK:  cpu time    0.8226: real time    0.8263
    SETDIJ:  cpu time    0.9565: real time    0.9588
    TRIAL :  cpu time  163.6439: real time  164.1653
    CORREC:  cpu time    0.0007: real time    0.0007
    CHARGE:  cpu time    0.7330: real time    0.7349
    --------------------------------------------
      LOOP:  cpu time  166.1588: real time  166.6912

 eigenvalue-minimisations  :     0
 total energy-change (2. order) :-0.2259942E-02  (-0.1938939E-02)
 number of electron     249.0000028 magnetization       2.9925710
 augmentation part       16.4721811 magnetization       1.6565218

 DIPCOR: dipole corrections for dipol
 direction  3 min pos     1,
 dipolmoment          -0.000000     -0.000000     -0.001613 electrons x Angstroem
 Tr[quadrupol]     -6723.593838

 energy correction for charged system         0.000000 eV
 dipol+quadrupol energy correction            0.000000 eV
 added-field ion interaction          0.000000 eV  (added to PSCEN)


 Free energy of the ion-electron system (eV)
  ---------------------------------------------------
  alpha Z        PSCENC =       101.46369953
  Ewald energy   TEWEN  =     41003.84608119
  -Hartree energ DENC   =    -50178.50278554
  -exchange      EXHF   =       575.21200809
  -V(xc)+E(xc)   XCENC  =       652.18379153
  PAW double counting   =     27898.20782775   -28000.70132024
  entropy T*S    EENTRO =        -0.00150212
  eigenvalues    EBANDS =     -3278.64330349
  atomic energy  EATOM  =     10619.73893706
  ---------------------------------------------------
  free energy    TOTEN  =      -607.19683682 eV

  energy without entropy =     -607.19533470  energy(sigma->0) =     -607.19608576
  exchange ACFDT corr.  =        -0.00083791  see jH, gK, PRB 81, 115126


[...]
  augment   181.80348   181.29046   208.18778     0.97012     0.06702    -0.03019
  Kinetic  3720.58150  3696.08192  4248.60628     0.36287     0.03120     0.08784
  Fock     -360.54786  -360.29683  -346.07825    -0.26680     0.00454     0.04334
  -------------------------------------------------------------------------------------
  Total     -45.64987   -43.75257    -0.42880    -0.15457     0.01005     0.01772
  in kB     -23.02228   -22.06543    -0.21626    -0.07796     0.00507     0.00894
  external pressure =      -15.10 kB  Pullay stress =        0.00 kB


 VOLUME and BASIS-vectors are now :
 -----------------------------------------------------------------------------
  energy-cutoff  :      500.00
  volume of cell :     3176.89
      direct lattice vectors                 reciprocal lattice vectors
    12.974100000  0.000000000  0.000000000     0.077076637 -0.000061074 -0.000016141
     0.009697377 12.238296158  0.000000000     0.000000000  0.081710721 -0.000003124
     0.004190466  0.000764932 20.007999547     0.000000000  0.000000000  0.049980009

  length of vectors
    12.974100000 12.238300000 20.008000000     0.077076663  0.081710721  0.049980009


 FORCES acting on ions:
    Electron-Ion                     Ewald-Force                    Non-Local-Force
 -----------------------------------------------------------------------------------------------
   0.304E+01 0.352E+01 -.170E+00   -.293E+01 -.355E+01 0.174E+00   -.835E-01 0.274E-02 -.631E-02
   0.597E+01 0.109E+02 -.496E+00   -.589E+01 -.112E+02 0.495E+00   -.109E+00 0.281E+00 -.162E-03
   -.580E+01 0.175E+01 -.353E+00   0.586E+01 -.178E+01 0.349E+00   -.974E-01 0.324E-02 0.197E-02
   0.128E+02 0.224E+02 0.727E+00   -.129E+02 -.226E+02 -.733E+00   0.103E+00 0.760E-01 0.696E-02
   0.243E+02 0.579E+02 0.615E+00   -.257E+02 -.611E+02 -.601E+00   0.137E+01 0.343E+01 -.122E-01
   0.172E+02 0.163E+02 -.109E+01   -.176E+02 -.165E+02 0.109E+01   0.304E+00 0.221E+00 0.236E-02
   0.656E+01 0.185E+02 -.345E+00   -.681E+01 -.188E+02 0.345E+00   0.218E+00 0.284E+00 -.742E-03
   0.529E+02 -.127E+02 -.303E+00   -.547E+02 0.156E+02 0.321E+00   0.165E+01 -.326E+01 -.204E-01
   0.146E+02 -.166E+01 -.250E+01   -.147E+02 0.169E+01 0.250E+01   0.125E+00 -.339E-02 -.721E-02
   0.276E+02 -.579E-02 -.181E+01   -.281E+02 0.293E+00 0.182E+01   0.518E+00 -.280E+00 -.105E-01
   0.616E+02 -.134E+02 0.932E+00   -.618E+02 0.134E+02 -.944E+00   0.106E+01 0.715E-01 0.112E-02
   0.389E+02 0.305E+01 -.110E+01   -.406E+02 -.591E+01 0.112E+01   0.169E+01 0.318E+01 -.166E-01
   0.132E+02 -.171E+02 -.142E+01   -.135E+02 0.173E+02 0.142E+01   0.285E+00 -.210E+00 -.116E-02
   0.246E+02 -.429E+01 -.235E+01   -.251E+02 0.400E+01 0.236E+01   0.483E+00 0.261E+00 -.114E-01
   0.119E+02 -.493E+02 -.630E+00   -.133E+02 0.525E+02 0.636E+00   0.138E+01 -.335E+01 -.100E-01
   0.446E+01 -.812E+01 -.610E+00   -.436E+01 0.842E+01 0.611E+00   -.996E-01 -.271E+00 -.248E-02
   0.400E+01 -.158E+02 -.990E+00   -.416E+01 0.161E+02 0.988E+00   0.148E+00 -.267E+00 -.978E-03
   0.833E+01 -.109E+02 -.301E+00   -.852E+01 0.109E+02 0.295E+00   0.115E+00 0.668E-02 0.274E-02
   -.354E+01 0.412E+01 -.135E+01   0.361E+01 -.410E+01 0.134E+01   -.127E+00 -.498E-02 0.283E-02
   0.282E+02 0.437E+02 0.568E+00   -.305E+02 -.463E+02 -.555E+00   0.242E+01 0.267E+01 -.121E-01
   0.147E+02 0.486E+01 -.788E+00   -.150E+02 -.486E+01 0.790E+00   0.343E+00 0.270E-01 -.785E-02
   -.168E+02 0.131E+02 -.112E+01   0.176E+02 -.130E+02 0.113E+01   -.656E+00 -.105E-01 -.902E-02
   -.485E+02 0.256E+02 0.208E+00   0.517E+02 -.257E+02 -.190E+00   -.326E+01 0.254E-02 -.185E-01
   -.432E+02 0.259E+02 0.489E+00   0.451E+02 -.283E+02 -.475E+00   -.166E+01 0.245E+01 -.129E-01
   -.307E+02 -.771E+01 0.678E+00   0.338E+02 0.774E+01 -.653E+00   -.329E+01 0.744E-01 -.238E-01
   -.272E+02 -.245E+02 -.467E+00   0.291E+02 0.268E+02 0.481E+00   -.176E+01 -.245E+01 -.173E-01
   -.354E+02 -.135E+02 -.121E+01   0.385E+02 0.137E+02 0.121E+01   -.324E+01 -.428E-01 -.140E-01
   0.283E+02 -.273E+02 -.567E+00   -.306E+02 0.298E+02 0.563E+00   0.243E+01 -.268E+01 -.237E-02
   -.134E+02 -.835E+01 -.181E+01   0.142E+02 0.831E+01 0.181E+01   -.671E+00 -.175E-02 -.141E-01
   -.700E+00 0.862E+00 -.647E+00   0.747E+00 -.862E+00 0.646E+00   -.937E-01 0.157E-02 0.228E-02
   -.534E+01 0.832E+01 -.124E+01   0.575E+01 -.830E+01 0.124E+01   -.377E+00 0.251E-01 -.931E-03
   -.108E+02 0.615E+00 -.112E+01   0.109E+02 -.612E+00 0.112E+01   -.106E+00 -.132E-01 -.281E-02
   -.796E+01 0.340E+01 -.809E+00   0.809E+01 -.343E+01 0.811E+00   -.107E+00 0.284E-01 -.269E-02
   0.951E+00 0.993E+01 -.105E+01   -.907E+00 -.100E+02 0.105E+01   -.274E-01 0.102E+00 0.140E-03
   -.197E+02 0.109E+02 -.538E+00   0.200E+02 -.114E+02 0.538E+00   -.367E+00 0.367E+00 -.298E-02
   -.122E+02 0.123E+01 -.107E+01   0.123E+02 -.161E+01 0.106E+01   -.129E+00 0.295E+00 -.237E-02
   0.264E+01 0.178E+01 -.126E+01   -.283E+01 -.187E+01 0.127E+01   0.227E+00 0.257E-01 -.154E-02
   0.794E+00 0.484E+01 -.135E+01   -.666E+00 -.491E+01 0.135E+01   -.173E+00 0.109E+00 -.180E-02
   -.138E+02 -.314E+01 -.497E+00   0.145E+02 0.315E+01 0.502E+00   -.497E+00 0.918E-02 -.845E-02
   -.138E+02 -.976E+00 -.710E+00   0.142E+02 0.960E+00 0.705E+00   -.321E+00 0.894E-01 0.328E-02
   0.685E+01 -.104E+01 -.179E+01   -.678E+01 0.103E+01 0.179E+01   -.788E-01 0.637E-02 -.204E-02
   0.610E+00 -.675E+01 -.988E+00   -.446E+00 0.684E+01 0.988E+00   -.169E+00 -.103E+00 0.148E-02
   -.165E+02 -.108E+02 -.550E+00   0.168E+02 0.113E+02 0.549E+00   -.424E+00 -.371E+00 -.492E-03
   -.113E+02 -.490E+00 -.567E+00   0.117E+02 0.458E+00 0.564E+00   -.326E+00 -.778E-01 0.123E-02
   0.272E+01 -.206E+01 -.714E+00   -.287E+01 0.212E+01 0.713E+00   0.179E+00 -.409E-01 0.486E-02
   0.214E+00 -.874E+01 -.226E+00   -.160E+00 0.884E+01 0.225E+00   -.638E-01 -.945E-01 0.632E-02
   -.400E+01 -.510E+01 -.119E+01   0.444E+01 0.512E+01 0.119E+01   -.395E+00 -.344E-01 0.219E-02
   -.988E+01 -.536E+00 -.606E+00   0.101E+02 0.925E+00 0.608E+00   -.165E+00 -.302E+00 0.372E-03
   -.821E+01 -.216E+01 -.365E+00   0.830E+01 0.219E+01 0.367E+00   -.100E+00 -.283E-01 0.167E-02
   0.177E+02 0.559E+02 0.238E+01   0.176E+01 -.547E+02 -.255E+01   -.186E+02 -.112E+01 0.166E+00
   -.195E+02 -.501E+02 0.564E+00   0.394E+02 0.490E+02 -.709E+00   -.191E+02 0.100E+01 0.134E+00
   0.234E+02 0.433E+02 0.263E+01   -.338E+02 -.262E+02 -.282E+01   0.976E+01 -.163E+02 0.191E+00
   -.166E+02 -.304E+02 0.263E+01   -.371E+01 0.298E+02 -.279E+01   0.193E+02 0.574E+00 0.156E+00
   -.635E+02 -.406E+02 0.852E+01   0.837E+02 0.412E+02 -.886E+01   -.197E+02 -.109E+01 0.339E+00
   0.120E+02 0.834E+01 0.150E+01   -.320E+02 -.788E+01 -.161E+01   0.192E+02 -.665E+00 0.109E+00
   0.358E+02 -.328E+01 -.238E+00   -.464E+02 -.141E+02 0.156E+00   0.101E+02 0.167E+02 0.780E-01
   -.278E+02 0.221E+02 0.965E+01   0.269E+02 -.195E+02 -.965E+01   0.111E+01 -.257E+01 -.242E-02
   -.193E+02 -.415E+02 0.619E+01   0.185E+02 0.395E+02 -.616E+01   0.924E+00 0.253E+01 -.134E-01
 -----------------------------------------------------------------------------------------------
   0.116E+01 0.859E+00 -.104E+01   0.295E-12 -.306E-12 0.888E-15   -.918E+00 -.721E+00 0.940E+00
 
 
 POSITION                                       TOTAL-FORCE (eV/Angst)
 -----------------------------------------------------------------------------------
      2.97346     12.23830     10.00008         0.021256     -0.023076     -0.002785
      0.76279      1.22164     10.00335        -0.020680      0.022299     -0.001280
      1.51671     12.23736     10.00257        -0.055436     -0.022222     -0.001666
      3.67192      1.27833      9.99580        -0.019398     -0.034174      0.001275
      2.90878      2.51703      9.99526         0.037889      0.371460      0.001215
      0.67167      3.65464     10.00489        -0.005898      0.027128     -0.000185
      1.45589      2.46169     10.00138        -0.039599     -0.030614     -0.000422
      2.74157      4.88366      9.99625        -0.043572     -0.486031     -0.003672
      0.63508      6.11435     10.00905        -0.012357      0.026367     -0.007563
      1.34395      4.88835     10.00506         0.098915     -0.015925     -0.005330
      3.44355      6.10881      9.99075         1.003737      0.080504     -0.010957
      2.74050      7.33885     10.00001         0.047130      0.483616     -0.006378
      0.67757      8.57758     10.00684        -0.019441     -0.028779     -0.001258
      1.34534      7.33942     10.00743         0.036297     -0.004875     -0.007068
      2.90904      9.72108     10.00123         0.038230     -0.346168     -0.005428
      0.77094     11.01700     10.00434         0.007250      0.011036     -0.001146
      1.46255      9.77423     10.00473        -0.017090      0.014238     -0.003038
      3.67961     10.95754     10.00052        -0.072431      0.039221     -0.003023
      7.24249      0.00289     10.00424        -0.067310      0.010107     -0.006471
      5.12409      1.28603      9.99504         0.231580      0.281915      0.000407
      5.81247      0.00378     10.00099         0.080964      0.023546     -0.006257
      7.96574      1.22779     10.00309         0.044869      0.062650     -0.004749
      7.23975      2.44833      9.99591        -0.270779     -0.111899     -0.002169
      7.94817      3.70143      9.99517         0.093287      0.206136      0.000242
      7.87844      6.11361      9.99400        -0.349606      0.107182     -0.000248
      7.96817      8.54507      9.99991         0.042271     -0.291487     -0.004124
      7.25920      9.79850     10.00258        -0.351251      0.169649     -0.008103
      5.13391     10.96454     10.00055         0.284238     -0.341499     -0.007117
      7.98072     11.01725     10.00623         0.042895     -0.053185     -0.006976
     11.56448      0.00103     10.00566        -0.042704      0.001977      0.001457
      9.39706      1.22037     10.00578         0.029881      0.046249     -0.002346
     10.12803      0.00229     10.00661         0.037102     -0.011712     -0.000175
     12.28875      1.22269     10.00559        -0.001140     -0.009660     -0.001071
     11.53288      2.43371     10.00637         0.023136      0.040825     -0.001875
      9.36530      3.66702     10.00171        -0.177324     -0.079865     -0.002824
     10.10080      2.43985     10.00531        -0.014332     -0.081980     -0.002649
     12.22351      3.66129     10.00682         0.043116     -0.069500     -0.000348
     11.49133      4.88920     10.00704        -0.050886      0.052822     -0.000570
      9.33173      6.11702     10.00102         0.195500      0.019385     -0.003522
     10.06828      4.89761     10.00342         0.048379      0.073336     -0.000909
     12.19971      6.11595     10.00858        -0.004071     -0.008927     -0.002233
     11.49529      7.34499     10.00637        -0.011968     -0.024085      0.002264
      9.38028      8.57492     10.00299        -0.186316      0.082850     -0.001486
     10.07283      7.33785     10.00351         0.000580     -0.107479     -0.001793
     12.23129      8.57339     10.00594         0.039896      0.027665      0.004414
     11.54431      9.80498     10.00465        -0.006988     -0.007154      0.006132
      9.41074     11.02234     10.00642         0.035578     -0.019362     -0.001106
     10.11462      9.80141     10.00485         0.007707      0.080005      0.002081
     12.29781     11.01652     10.00475        -0.018563     -0.000301      0.003667
      3.52103      3.75229      9.98993        -0.649295     -0.035557      0.008002
      3.52023      8.47505      9.99647        -0.811458     -0.006218      0.000629
      5.85924      2.46932      9.98961         0.290228     -0.519064      0.017927
      7.20855      4.89183      9.98890         0.577608      0.086107      0.010719
      4.78302      6.11102      9.97636        -1.235078     -0.563076      0.027143
      7.22627      7.35207      9.99294         0.886488     -0.259838      0.007981
      5.87498      9.78004      9.99875         0.363916      0.729232      0.002667
      5.34590      4.32809      9.98141        -0.062336      0.003437      0.017069
      5.36200      7.88897      9.98611        -0.072613      0.412765      0.015029
 -----------------------------------------------------------------------------------
    total drift:                               -0.002830     -0.000350     -0.002255


--------------------------------------------------------------------------------------------------------



  FREE ENERGIE OF THE ION-ELECTRON SYSTEM (eV)
  ---------------------------------------------------
  free  energy   TOTEN  =      -607.21097304 eV

  energy  without entropy=     -607.21066676  energy(sigma->0) =     -607.21081990
 


--------------------------------------------------------------------------------------------------------


    POTLOK:  cpu time    1.8181: real time    1.8249


--------------------------------------------------------------------------------------------------------


 stress matrix after NEB project (eV)
    -45.64987     -0.15507      0.01772
     -0.15457    -43.75257      0.01011
      0.01758      0.01005     -0.42880
  FORCES: max atom, RMS     1.357649    0.374570
  FORCE total and by dimension    2.852642    1.235078
  Stress total and by dimension   63.233149   45.649872
 writing wavefunctions
     LOOP+:  cpu time 9198.5584: real time 9234.9544
    4ORBIT:  cpu time    0.0000: real time    0.0000
 


 total charge     
 
# of ion       s       p       d       tot
------------------------------------------
    1        0.851   1.693   0.000   2.543
    2        0.864   1.755   0.000   2.619
    3        0.858   1.754   0.000   2.612
    4        0.845   1.741   0.000   2.585
    5        0.852   1.699   0.000   2.550
    6        0.873   1.782   0.000   2.655
    7        0.862   1.769   0.000   2.631
    8        0.876   1.786   0.000   2.662
    9        0.870   1.808   0.000   2.678
   10        0.877   1.822   0.000   2.699
   11        0.884   1.799   0.000   2.684
   12        0.875   1.781   0.000   2.656
   13        0.872   1.781   0.000   2.653
   14        0.878   1.822   0.000   2.700
   15        0.850   1.697   0.000   2.547
   16        0.864   1.755   0.000   2.619
   17        0.862   1.768   0.000   2.631
   18        0.844   1.736   0.000   2.580
   19        0.871   1.760   0.000   2.631
   20        0.848   1.687   0.000   2.535
   21        0.857   1.749   0.000   2.606
   22        0.866   1.786   0.000   2.653
   23        0.863   1.741   0.000   2.604
   24        0.857   1.734   0.000   2.591
   25        0.840   1.658   0.000   2.497
   26        0.858   1.735   0.000   2.593
   27        0.863   1.740   0.000   2.603
   28        0.848   1.686   0.000   2.534
   29        0.867   1.789   0.000   2.656
   30        0.868   1.772   0.000   2.640
   31        0.869   1.789   0.000   2.658
   32        0.867   1.777   0.000   2.643
   33        0.863   1.765   0.000   2.629
   34        0.870   1.777   0.000   2.647
   35        0.869   1.785   0.000   2.654
   36        0.867   1.783   0.000   2.650
   37        0.869   1.792   0.000   2.661
   38        0.867   1.784   0.000   2.651
   39        0.862   1.766   0.000   2.628
   40        0.870   1.780   0.000   2.650
   41        0.875   1.792   0.000   2.667
   42        0.867   1.782   0.000   2.650
   43        0.870   1.789   0.000   2.660
   44        0.869   1.777   0.000   2.647
   45        0.869   1.790   0.000   2.659
   46        0.870   1.778   0.000   2.648
   47        0.869   1.790   0.000   2.659
   48        0.867   1.784   0.000   2.651
   49        0.864   1.766   0.000   2.630
   50        1.231   2.659   0.000   3.890
   51        1.232   2.663   0.000   3.895
   52        1.227   2.649   0.000   3.876
   53        1.220   2.638   0.000   3.859
   54        1.252   2.566   0.000   3.819
   55        1.222   2.651   0.000   3.872
   56        1.228   2.653   0.000   3.881
   57        0.476   0.600   8.359   9.435
   58        0.445   0.606   6.248   7.299
--------------------------------------------------
tot         51.888 106.118  14.607 172.613
 


 magnetization (x)
 
# of ion       s       p       d       tot
------------------------------------------
    1       -0.000  -0.002   0.000  -0.002
    2       -0.001  -0.006   0.000  -0.007
    3        0.002   0.024   0.000   0.026
    4        0.000   0.006   0.000   0.007
    5       -0.001  -0.008   0.000  -0.009
    6       -0.000   0.001   0.000   0.001
    7        0.001   0.010   0.000   0.011
    8        0.001   0.034   0.000   0.036
    9        0.002   0.026   0.000   0.027
   10       -0.001  -0.006   0.000  -0.007
   11       -0.002  -0.006   0.000  -0.008
   12        0.002   0.034   0.000   0.036
   13       -0.000  -0.003   0.000  -0.004
   14       -0.001  -0.006   0.000  -0.006
   15       -0.001  -0.017   0.000  -0.018
   16       -0.001  -0.006   0.000  -0.006
   17        0.001   0.013   0.000   0.013
   18        0.001   0.009   0.000   0.010
   19        0.000   0.008   0.000   0.008
   20       -0.001  -0.006   0.000  -0.006
   21        0.000   0.010   0.000   0.010
   22       -0.000   0.001   0.000   0.001
   23       -0.000   0.002   0.000   0.002
   24        0.001   0.015   0.000   0.016
   25       -0.000   0.001   0.000   0.001
   26        0.001   0.018   0.000   0.019
   27        0.000   0.007   0.000   0.007
   28       -0.001  -0.007   0.000  -0.008
   29       -0.000  -0.000   0.000  -0.000
   30       -0.000  -0.003   0.000  -0.003
   31       -0.000  -0.004   0.000  -0.004
   32        0.001   0.011   0.000   0.011
   33        0.000   0.006   0.000   0.006
   34       -0.000  -0.005   0.000  -0.005
   35       -0.000  -0.002   0.000  -0.002
   36        0.000   0.004   0.000   0.005
   37        0.001   0.012   0.000   0.013
   38        0.000   0.005   0.000   0.005
   39        0.000   0.009   0.000   0.009
   40        0.000   0.008   0.000   0.009
   41       -0.001  -0.003   0.000  -0.004
   42        0.000   0.006   0.000   0.006
   43       -0.001  -0.004   0.000  -0.005
   44        0.000   0.010   0.000   0.010
   45        0.001   0.013   0.000   0.014
   46       -0.001  -0.007   0.000  -0.007
   47       -0.000  -0.004   0.000  -0.004
   48        0.000   0.005   0.000   0.005
   49        0.000   0.006   0.000   0.006
   50        0.001   0.027   0.000   0.028
   51       -0.003   0.009   0.000   0.006
   52        0.000   0.010   0.000   0.011
   53        0.001   0.017   0.000   0.017
   54        0.002   0.132   0.000   0.134
   55       -0.003   0.002   0.000  -0.002
   56       -0.003  -0.002   0.000  -0.005
   57       -0.002   0.006   0.010   0.015
   58        0.040   0.022   2.027   2.089
--------------------------------------------------
tot          0.035   0.434   2.038   2.506
 

 total amount of memory used by VASP MPI-rank0   153482. kBytes
=======================================================================

   base      :      30000. kBytes
   nonl-proj :       4284. kBytes
   fftplans  :      11188. kBytes
   grid      :      29312. kBytes
   one-center:         62. kBytes
   HF        :         23. kBytes
   nonlr-proj:      15334. kBytes
   wavefun   :      63279. kBytes
 
  
  
 General timing and accounting informations for this job:
 ========================================================
  
                  Total CPU time used (sec):     9233.729
                            User time (sec):     9221.050
                          System time (sec):       12.679
                         Elapsed time (sec):     9276.913
  
                   Maximum memory used (kb):      398612.
                   Average memory used (kb):           0.
  
                          Minor page faults:       744927
                          Major page faults:          182
                 Voluntary context switches:       152330
