 vasp.5.4.4.18Apr17-6-g9f103f2a35 (build Feb 25 2019 10:51:38) complex          
  
 executed on             LinuxIFC date 2021.03.10  00:19:08
 running on   80 total cores
 distrk:  each k-point on   40 cores,    2 groups
 distr:  one band on NCORES_PER_BAND=  40 cores,    1 groups


--------------------------------------------------------------------------------------------------------


 INCAR:
 POTCAR:    PAW_PBE C 08Apr2002                   
 POTCAR:    PAW_PBE N 08Apr2002                   
 POTCAR:    PAW_PBE Ni 02Aug2007                  
 POTCAR:    PAW_PBE Fe 06Sep2000                  

 ----------------------------------------------------------------------------- 
|                                                                             |
|           W    W    AA    RRRRR   N    N  II  N    N   GGGG   !!!           |
|           W    W   A  A   R    R  NN   N  II  NN   N  G    G  !!!           |
|           W    W  A    A  R    R  N N  N  II  N N  N  G       !!!           |
|           W WW W  AAAAAA  RRRRR   N  N N  II  N  N N  G  GGG   !            |
|           WW  WW  A    A  R   R   N   NN  II  N   NN  G    G                |
|           W    W  A    A  R    R  N    N  II  N    N   GGGG   !!!           |
|                                                                             |
|      For optimal performance we recommend to set                            |
|        NCORE= 4 - approx SQRT( number of cores)                             |
|      NCORE specifies how many cores store one orbital (NPAR=cpu/NCORE).     |
|      This setting can  greatly improve the performance of VASP for DFT.     |
|      The default,   NCORE=1            might be grossly inefficient         |
|      on modern multi-core architectures or massively parallel machines.     |
|      Do your own testing !!!!                                               |
|      Unfortunately you need to use the default for GW and RPA calculations. |
|      (for HF NCORE is supported but not extensively tested yet)             |
|                                                                             |
 ----------------------------------------------------------------------------- 


 ----------------------------------------------------------------------------- 
|                                                                             |
|           W    W    AA    RRRRR   N    N  II  N    N   GGGG   !!!           |
|           W    W   A  A   R    R  NN   N  II  NN   N  G    G  !!!           |
|           W    W  A    A  R    R  N N  N  II  N N  N  G       !!!           |
|           W WW W  AAAAAA  RRRRR   N  N N  II  N  N N  G  GGG   !            |
|           WW  WW  A    A  R   R   N   NN  II  N   NN  G    G                |
|           W    W  A    A  R    R  N    N  II  N    N   GGGG   !!!           |
|                                                                             |
|      You have enabled k-point parallelism (KPAR>1).                         |
|      This developmental code was originally  written by Paul Kent at ORNL,  |
|      and carefully double checked in Vienna.                                |
|      GW as well as linear response parallelism added by Martijn Marsman     |
|      and Georg Kresse.                                                      |
|      Carefully verify results versus KPAR=1.                                |
|      Report problems to Paul Kent and Vienna.                               |
|                                                                             |
 ----------------------------------------------------------------------------- 

 POTCAR:    PAW_PBE C 08Apr2002                   
   VRHFIN =C: s2p2                                                              
   LEXCH  = PE                                                                  
   EATOM  =   147.1560 eV,   10.8157 Ry                                         
                                                                                
   TITEL  = PAW_PBE C 08Apr2002                                                 
   LULTRA =        F    use ultrasoft PP ?                                      
   IUNSCR =        1    unscreen: 0-lin 1-nonlin 2-no                           
   RPACOR =    1.200    partial core radius                                     
   POMASS =   12.011; ZVAL   =    4.000    mass and valenz                      
   RCORE  =    1.500    outmost cutoff radius                                   
   RWIGS  =    1.630; RWIGS  =    0.863    wigner-seitz radius (au A)           
   ENMAX  =  400.000; ENMIN  =  300.000 eV                                      
   ICORE  =        2    local potential                                         
   LCOR   =        T    correct aug charges                                     
   LPAW   =        T    paw PP                                                  
   EAUG   =  644.873                                                            
   DEXC   =    0.000                                                            
   RMAX   =    1.529    core radius for proj-oper                               
   RAUG   =    1.300    factor for augmentation sphere                          
   RDEP   =    1.501    radius for radial grids                                 
   RDEPT  =    1.300    core radius for aug-charge                              
                                                                                
   Atomic configuration                                                         
    4 entries                                                                   
     n  l   j            E        occ.                                          
     1  0  0.50      -273.3789   2.0000                                         
     2  0  0.50       -13.7508   2.0000                                         
     2  1  0.50        -5.2854   2.0000                                         
     3  2  1.50        -5.4423   0.0000                                         
   Description                                                                  
     l       E           TYP  RCUT    TYP  RCUT                                 
     0    -13.7508458     23  1.200                                             
     0     -8.2022199     23  1.200                                             
     1     -5.2854383     23  1.500                                             
     1     34.0145650     23  1.500                                             
     2     -5.4423304      7  1.500                                             
  local pseudopotential read in
  partial core-charges read in
  partial kinetic energy density read in
  atomic valenz-charges read in
  non local Contribution for L=           0  read in
    real space projection operators read in
  non local Contribution for L=           0  read in
    real space projection operators read in
  non local Contribution for L=           1  read in
    real space projection operators read in
  non local Contribution for L=           1  read in
    real space projection operators read in
    PAW grid and wavefunctions read in
 
   number of l-projection  operators is LMAX  =           4
   number of lm-projection operators is LMMAX =           8
 
 POTCAR:    PAW_PBE N 08Apr2002                   
   VRHFIN =N: s2p3                                                              
   LEXCH  = PE                                                                  
   EATOM  =   264.5486 eV,   19.4438 Ry                                         
                                                                                
   TITEL  = PAW_PBE N 08Apr2002                                                 
   LULTRA =        F    use ultrasoft PP ?                                      
   IUNSCR =        1    unscreen: 0-lin 1-nonlin 2-no                           
   RPACOR =    1.200    partial core radius                                     
   POMASS =   14.001; ZVAL   =    5.000    mass and valenz                      
   RCORE  =    1.500    outmost cutoff radius                                   
   RWIGS  =    1.400; RWIGS  =    0.741    wigner-seitz radius (au A)           
   ENMAX  =  400.000; ENMIN  =  300.000 eV                                      
   ICORE  =        2    local potential                                         
   LCOR   =        T    correct aug charges                                     
   LPAW   =        T    paw PP                                                  
   EAUG   =  627.112                                                            
   DEXC   =    0.000                                                            
   RMAX   =    1.529    core radius for proj-oper                               
   RAUG   =    1.300    factor for augmentation sphere                          
   RDEP   =    1.514    radius for radial grids                                 
   RDEPT  =    1.338    core radius for aug-charge                              
                                                                                
   Atomic configuration                                                         
    4 entries                                                                   
     n  l   j            E        occ.                                          
     1  0  0.50      -384.7179   2.0000                                         
     2  0  0.50       -18.5828   2.0000                                         
     2  1  0.50        -7.0898   3.0000                                         
     3  2  1.50        -6.8029   0.0000                                         
   Description                                                                  
     l       E           TYP  RCUT    TYP  RCUT                                 
     0    -18.5828119     23  1.200                                             
     0    -13.5018863     23  1.200                                             
     1     -7.0897853     23  1.500                                             
     1      9.5240782     23  1.500                                             
     2     -6.8029130      7  1.500                                             
  local pseudopotential read in
  partial core-charges read in
  partial kinetic energy density read in
  atomic valenz-charges read in
  non local Contribution for L=           0  read in
    real space projection operators read in
  non local Contribution for L=           0  read in
    real space projection operators read in
  non local Contribution for L=           1  read in
    real space projection operators read in
  non local Contribution for L=           1  read in
    real space projection operators read in
    PAW grid and wavefunctions read in
 
   number of l-projection  operators is LMAX  =           4
   number of lm-projection operators is LMMAX =           8
 
 POTCAR:    PAW_PBE Ni 02Aug2007                  
   VRHFIN =Ni:                                                                  
   LEXCH  = PE                                                                  
   EATOM  =  1077.6739 eV,   79.2068 Ry                                         
                                                                                
   TITEL  = PAW_PBE Ni 02Aug2007                                                
   LULTRA =        F    use ultrasoft PP ?                                      
   IUNSCR =        1    unscreen: 0-lin 1-nonlin 2-no                           
   RPACOR =    2.000    partial core radius                                     
   POMASS =   58.690; ZVAL   =   10.000    mass and valenz                      
   RCORE  =    2.300    outmost cutoff radius                                   
   RWIGS  =    2.430; RWIGS  =    1.286    wigner-seitz radius (au A)           
   ENMAX  =  269.532; ENMIN  =  202.149 eV                                      
   RCLOC  =    1.201    cutoff for local pot                                    
   LCOR   =        T    correct aug charges                                     
   LPAW   =        T    paw PP                                                  
   EAUG   =  544.565                                                            
   DEXC   =    0.000                                                            
   RMAX   =    2.357    core radius for proj-oper                               
   RAUG   =    1.300    factor for augmentation sphere                          
   RDEP   =    2.390    radius for radial grids                                 
   RDEPT  =    1.838    core radius for aug-charge                              
                                                                                
   Atomic configuration                                                         
    9 entries                                                                   
     n  l   j            E        occ.                                          
     1  0  0.50     -8206.4253   2.0000                                         
     2  0  0.50      -976.1748   2.0000                                         
     2  1  1.50      -839.0571   6.0000                                         
     3  0  0.50      -105.9991   2.0000                                         
     3  1  1.50       -66.4603   6.0000                                         
     3  2  2.50        -4.6458   9.0000                                         
     4  0  0.50        -4.4926   1.0000                                         
     4  1  1.50        -4.0817   0.0000                                         
     4  3  2.50        -1.3606   0.0000                                         
   Description                                                                  
     l       E           TYP  RCUT    TYP  RCUT                                 
     2     -4.6457903     23  2.300                                             
     2     -6.0063729     23  2.300                                             
     0     -4.4925590     23  2.300                                             
     0      5.0102601     23  2.300                                             
     1     -2.7211652     23  2.300                                             
     1     16.5183231     23  2.300                                             
  local pseudopotential read in
  partial core-charges read in
  partial kinetic energy density read in
  atomic valenz-charges read in
  non local Contribution for L=           2  read in
    real space projection operators read in
  non local Contribution for L=           2  read in
    real space projection operators read in
  non local Contribution for L=           0  read in
    real space projection operators read in
  non local Contribution for L=           0  read in
    real space projection operators read in
  non local Contribution for L=           1  read in
    real space projection operators read in
  non local Contribution for L=           1  read in
    real space projection operators read in
    PAW grid and wavefunctions read in
 
   number of l-projection  operators is LMAX  =           6
   number of lm-projection operators is LMMAX =          18
 
 POTCAR:    PAW_PBE Fe 06Sep2000                  
   VRHFIN =Fe:  d7 s1                                                           
   LEXCH  = PE                                                                  
   EATOM  =   594.3153 eV,   43.6809 Ry                                         
                                                                                
   TITEL  = PAW_PBE Fe 06Sep2000                                                
   LULTRA =        F    use ultrasoft PP ?                                      
   IUNSCR =        1    unscreen: 0-lin 1-nonlin 2-no                           
   RPACOR =    2.000    partial core radius                                     
   POMASS =   55.847; ZVAL   =    8.000    mass and valenz                      
   RCORE  =    2.300    outmost cutoff radius                                   
   RWIGS  =    2.460; RWIGS  =    1.302    wigner-seitz radius (au A)           
   ENMAX  =  267.882; ENMIN  =  200.911 eV                                      
   RCLOC  =    1.701    cutoff for local pot                                    
   LCOR   =        T    correct aug charges                                     
   LPAW   =        T    paw PP                                                  
   EAUG   =  511.368                                                            
   DEXC   =    0.000                                                            
   RMAX   =    2.356    core radius for proj-oper                               
   RAUG   =    1.300    factor for augmentation sphere                          
   RDEP   =    2.442    radius for radial grids                                 
   RDEPT  =    1.890    core radius for aug-charge                              
                                                                                
   Atomic configuration                                                         
    9 entries                                                                   
     n  l   j            E        occ.                                          
     1  0  0.50     -6993.8440   2.0000                                         
     2  0  0.50      -814.6047   2.0000                                         
     2  1  1.50      -693.3689   6.0000                                         
     3  0  0.50       -89.4732   2.0000                                         
     3  1  1.50       -55.6373   6.0000                                         
     3  2  2.50        -3.8151   7.0000                                         
     4  0  0.50        -4.2551   1.0000                                         
     4  1  1.50        -3.4015   0.0000                                         
     4  3  2.50        -1.3606   0.0000                                         
   Description                                                                  
     l       E           TYP  RCUT    TYP  RCUT                                 
     2     -3.8151135     23  2.300                                             
     2     -5.1756961     23  2.300                                             
     0     -4.2550963     23  2.300                                             
     0      7.2035603     23  2.300                                             
     1     -2.7211652     23  2.300                                             
     1     18.4316424     23  2.300                                             
  local pseudopotential read in
  partial core-charges read in
  partial kinetic energy density read in
  atomic valenz-charges read in
  non local Contribution for L=           2  read in
    real space projection operators read in
  non local Contribution for L=           2  read in
    real space projection operators read in
  non local Contribution for L=           0  read in
    real space projection operators read in
  non local Contribution for L=           0  read in
    real space projection operators read in
  non local Contribution for L=           1  read in
    real space projection operators read in
  non local Contribution for L=           1  read in
    real space projection operators read in
    PAW grid and wavefunctions read in
 
   number of l-projection  operators is LMAX  =           6
   number of lm-projection operators is LMMAX =          18
 

 ----------------------------------------------------------------------------- 
|                                                                             |
|  ADVICE TO THIS USER RUNNING 'VASP/VAMP'   (HEAR YOUR MASTER'S VOICE ...):  |
|                                                                             |
|      You have a (more or less) 'large supercell' and for larger cells       |
|      it might be more efficient to use real space projection opertators     |
|      So try LREAL= Auto  in the INCAR   file.                               |
|      Mind:          For very  accurate calculation you might also keep the  |
|      reciprocal projection scheme          (i.e. LREAL=.FALSE.)             |
|                                                                             |
 ----------------------------------------------------------------------------- 

  PAW_PBE C 08Apr2002                   :
 energy of atom  1       EATOM= -147.1560
 kinetic energy error for atom=    0.0076 (will be added to EATOM!!)
  PAW_PBE N 08Apr2002                   :
 energy of atom  2       EATOM= -264.5486
 kinetic energy error for atom=    0.0138 (will be added to EATOM!!)
  PAW_PBE Ni 02Aug2007                  :
 energy of atom  3       EATOM=-1077.6739
 kinetic energy error for atom=    0.0030 (will be added to EATOM!!)
  PAW_PBE Fe 06Sep2000                  :
 energy of atom  4       EATOM= -594.3153
 kinetic energy error for atom=    0.0026 (will be added to EATOM!!)
 
 
 POSCAR:  C  N Ni Fe                             
  positions in cartesian coordinates
  No initial velocities read in
 exchange correlation table for  LEXCH =        8
   RHO(1)=    0.500       N(1)  =     2000
   RHO(2)=  100.500       N(2)  =     4000

 VTST: version 3.2, (02/03/18)

 CHAIN: initializing optimizer
 
 OPT: Using VASP Conjugate-Gradient optimizer
 CHAIN: Read ICHAIN            0
 
 POSCAR:  C  N Ni Fe                             
  positions in cartesian coordinates
  No initial velocities read in
 


--------------------------------------------------------------------------------------------------------


 ion  position               nearest neighbor table
   1  0.223  0.002  0.500-  19 1.42   3 1.43   4 1.44
   2  0.057  0.102  0.499-  36 1.43   3 1.43   7 1.44
   3  0.111  0.001  0.499-   1 1.43   2 1.43  17 1.43
   4  0.278  0.103  0.503-  21 1.42   5 1.44   1 1.44
   5  0.225  0.205  0.505-   7 1.44   4 1.44   8 1.45
   6  0.057  0.302  0.499-   7 1.43  40 1.43  11 1.43
   7  0.113  0.203  0.501-   6 1.43   5 1.44   2 1.44
   8  0.281  0.306  0.510-  25 1.45   5 1.45   9 1.46
   9  0.222  0.407  0.510-  53 1.37  11 1.43   8 1.46
  10  0.054  0.503  0.500-  14 1.43  11 1.43  44 1.44
  11  0.111  0.403  0.502-   6 1.43   9 1.43  10 1.43
  12  0.222  0.602  0.505-  53 1.38  14 1.44  15 1.45
  13  0.054  0.702  0.497-  14 1.42  18 1.43  48 1.44
  14  0.110  0.603  0.499-  13 1.42  10 1.43  12 1.44
  15  0.282  0.701  0.500-  56 1.42  16 1.44  12 1.45
  16  0.224  0.800  0.499-  15 1.44  18 1.44  19 1.44
  17  0.056  0.901  0.498-  18 1.43   3 1.43  52 1.43
  18  0.111  0.800  0.498-  13 1.43  17 1.43  16 1.44
  19  0.277  0.902  0.499-   1 1.42  30 1.43  16 1.44
  20  0.555  0.002  0.498-  32 1.42  23 1.42  22 1.42
  21  0.389  0.102  0.502-   4 1.42  26 1.43  22 1.43
  22  0.444  0.002  0.499-  20 1.42  21 1.43  30 1.43
  23  0.612  0.100  0.498-  24 1.41  20 1.42  34 1.42
  24  0.557  0.198  0.501-  23 1.41  27 1.41  26 1.43
  25  0.394  0.302  0.511-  54 1.39  26 1.43   8 1.45
  26  0.446  0.201  0.504-  24 1.43  21 1.43  25 1.43
  27  0.615  0.295  0.500-  28 1.39  24 1.41  38 1.41
  28  0.561  0.392  0.508-  54 1.37  55 1.37  27 1.39
  29  0.555  0.805  0.497-  57 1.38  32 1.41  31 1.43
  30  0.389  0.903  0.499-  31 1.41  19 1.43  22 1.43
  31  0.443  0.803  0.498-  56 1.40  30 1.41  29 1.43
  32  0.610  0.903  0.497-  29 1.41  20 1.42  50 1.43
  33  0.890  0.001  0.496-  52 1.43  35 1.43  36 1.44
  34  0.723  0.100  0.496-  35 1.42  23 1.42  39 1.43
  35  0.778  0.000  0.496-  34 1.42  50 1.42  33 1.43
  36  0.946  0.101  0.497-  37 1.43   2 1.43  33 1.44
  37  0.891  0.201  0.496-  39 1.42  36 1.43  40 1.43
  38  0.725  0.298  0.497-  27 1.41  39 1.41  43 1.43
  39  0.780  0.199  0.496-  38 1.41  37 1.42  34 1.43
  40  0.945  0.302  0.497-  37 1.43   6 1.43  41 1.43
  41  0.889  0.401  0.497-  43 1.43  44 1.43  40 1.43
  42  0.717  0.497  0.499-  55 1.39  43 1.43  47 1.45
  43  0.777  0.400  0.498-  38 1.43  41 1.43  42 1.43
  44  0.942  0.502  0.498-  41 1.43  10 1.44  45 1.44
  45  0.884  0.601  0.497-  48 1.44  44 1.44  47 1.46
  46  0.715  0.702  0.496-  57 1.39  51 1.44  47 1.44
  47  0.770  0.600  0.497-  46 1.44  42 1.45  45 1.46
  48  0.941  0.700  0.496-  49 1.42  45 1.44  13 1.44
  49  0.887  0.800  0.496-  48 1.42  51 1.43  52 1.44
  50  0.722  0.902  0.496-  35 1.42  32 1.43  51 1.43
  51  0.775  0.800  0.496-  50 1.43  49 1.43  46 1.44
  52  0.944  0.900  0.497-  33 1.43  17 1.43  49 1.44
  53  0.270  0.505  0.517-   9 1.37  12 1.38  58 1.87
  54  0.456  0.393  0.520-  28 1.37  25 1.39  58 1.87
  55  0.610  0.490  0.504-  28 1.37  42 1.39  59 1.88
  56  0.393  0.703  0.500-  31 1.40  15 1.42  59 1.96
  57  0.606  0.707  0.495-  29 1.38  46 1.39  59 1.87
  58  0.397  0.512  0.563-  54 1.87  53 1.87  59 2.19
  59  0.506  0.597  0.498-  57 1.87  55 1.88  56 1.96  58 2.19
 
  LATTYP: Found a simple orthorhombic cell.
 ALAT       =    12.4000000000
 B/A-ratio  =     1.0330645161
 C/A-ratio  =     1.6129032258
  
  Lattice vectors:
  
 A1 = (   0.0000000000, -12.4000000000,   0.0000000000)
 A2 = ( -12.8100000000,   0.0000000000,   0.0000000000)
 A3 = (   0.0000000000,   0.0000000000, -20.0000000000)


Analysis of symmetry for initial positions (statically):
=====================================================================
 Subroutine PRICEL returns:
 Original cell was already a primitive cell.
 

 Routine SETGRP: Setting up the symmetry group for a 
 simple orthorhombic supercell.


 Subroutine GETGRP returns: Found  1 space group operations
 (whereof  1 operations were pure point group operations)
 out of a pool of  8 trial point group operations.


The static configuration has the point symmetry C_1 .


Analysis of symmetry for dynamics (positions and initial velocities):
=====================================================================
 Subroutine PRICEL returns:
 Original cell was already a primitive cell.
 

 Routine SETGRP: Setting up the symmetry group for a 
 simple orthorhombic supercell.


 Subroutine GETGRP returns: Found  1 space group operations
 (whereof  1 operations were pure point group operations)
 out of a pool of  8 trial point group operations.


The dynamic configuration has the point symmetry C_1 .


Analysis of structural, dynamic, and magnetic symmetry:
=====================================================================
 Subroutine PRICEL returns:
 Original cell was already a primitive cell.
 

 Routine SETGRP: Setting up the symmetry group for a 
 simple orthorhombic supercell.


 Subroutine GETGRP returns: Found  1 space group operations
 (whereof  1 operations were pure point group operations)
 out of a pool of  8 trial point group operations.


The magnetic configuration has the point symmetry C_1 .


 Subroutine INISYM returns: Found  1 space group operations
 (whereof  1 operations are pure point group operations),
 and found     1 'primitive' translations

 
 
 KPOINTS: KPOINTS created by Atomic Simulation Env

Automatic generation of k-mesh.
Space group operators:
 irot       det(A)        alpha          n_x          n_y          n_z        tau_x        tau_y        tau_z
    1     1.000000     0.000000     1.000000     0.000000     0.000000     0.000000     0.000000     0.000000
 
 Subroutine IBZKPT returns following result:
 ===========================================
 
 Found      2 irreducible k-points:
 
 Following reciprocal coordinates:
            Coordinates               Weight
  0.250000  0.250000  0.000000      2.000000
 -0.250000  0.250000  0.000000      2.000000
 
 Following cartesian coordinates:
            Coordinates               Weight
  0.019516  0.020161  0.000000      2.000000
 -0.019516  0.020161  0.000000      2.000000
 
 
 Subroutine IBZKPT_HF returns following result:
 ==============================================
 
 Found      4 k-points in 1st BZ
 the following      4 k-points will be used (e.g. in the exchange kernel)
 Following reciprocal coordinates:   # in IRBZ
  0.250000  0.250000  0.000000    0.25000000   1 t-inv F
 -0.250000  0.250000  0.000000    0.25000000   2 t-inv F
 -0.250000 -0.250000  0.000000    0.25000000   1 t-inv T
  0.250000 -0.250000  0.000000    0.25000000   2 t-inv T


--------------------------------------------------------------------------------------------------------




 Dimension of arrays:
   k-points           NKPTS =      2   k-points in BZ     NKDIM =      4   number of bands    NBANDS=    157
   number of dos      NEDOS =    301   number of ions     NIONS =     59
   non local maximal  LDIM  =      6   non local SUM 2l+1 LMDIM =     18
   total plane-waves  NPLWV = ******
   max r-space proj   IRMAX =      1   max aug-charges    IRDMAX=  14730
   dimension x,y,z NGX =    96 NGY =   90 NGZ =  150
   dimension x,y,z NGXF=   192 NGYF=  180 NGZF=  300
   support grid    NGXF=   192 NGYF=  180 NGZF=  300
   ions per type =              52   5   1   1
   NGX,Y,Z   is equivalent  to a cutoff of  12.46, 12.07, 12.47 a.u.
   NGXF,Y,Z  is equivalent  to a cutoff of  24.92, 24.13, 24.94 a.u.

 SYSTEM =  unknown system                          
 POSCAR =   C  N Ni Fe                             

 Startparameter for this run:
   NWRITE =      2    write-flag & timer
   PREC   = accura    normal or accurate (medium, high low for compatibility)
   ISTART =      1    job   : 0-new  1-cont  2-samecut
   ICHARG =      0    charge: 1-file 2-atom 10-const
   ISPIN  =      2    spin polarized calculation?
   LNONCOLLINEAR =      F non collinear calculations
   LSORBIT =      F    spin-orbit coupling
   INIWAV =      1    electr: 0-lowe 1-rand  2-diag
   LASPH  =      T    aspherical Exc in radial PAW
   METAGGA=      F    non-selfconsistent MetaGGA calc.

 Electronic Relaxation 1
   ENCUT  =  500.0 eV  36.75 Ry    6.06 a.u.  23.36 22.61 36.46*2*pi/ulx,y,z
   ENINI  =  500.0     initial cutoff
   ENAUG  =  644.9 eV  augmentation charge cutoff
   NELM   =    250;   NELMIN=  2; NELMDL=  0     # of ELM steps 
   EDIFF  = 0.1E-03   stopping-criterion for ELM
   LREAL  =      F    real-space projection
   NLSPLINE    = F    spline interpolate recip. space projectors
   LCOMPAT=      F    compatible to vasp.4.4
   GGA_COMPAT  = T    GGA compatible to vasp.4.4-vasp.4.6
   LMAXPAW     = -100 max onsite density
   LMAXMIX     =    2 max onsite mixed and CHGCAR
   VOSKOWN=      0    Vosko Wilk Nusair interpolation
   ROPT   =    0.00000   0.00000   0.00000   0.00000
 Ionic relaxation
   EDIFFG = -.3E-01   stopping-criterion for IOM
   NSW    =      0    number of steps for IOM
   NBLOCK =      1;   KBLOCK =      1    inner block; outer block 
   IBRION =     -1    ionic relax: 0-MD 1-quasi-New 2-CG
   NFREE  =      1    steps in history (QN), initial steepest desc. (CG)
   ISIF   =      2    stress and relaxation
   IWAVPR =     10    prediction:  0-non 1-charg 2-wave 3-comb
   ISYM   =      3    0-nonsym 1-usesym 2-fastsym
   LCORR  =      T    Harris-Foulkes like correction to forces

   POTIM  = 0.5000    time-step for ionic-motion
   TEIN   =    0.0    initial temperature
   TEBEG  =    0.0;   TEEND  =   0.0 temperature during run
   SMASS  =  -3.00    Nose mass-parameter (am)
   estimated Nose-frequenzy (Omega)   =  0.10E-29 period in steps =****** mass=  -0.375E-26a.u.
   SCALEE = 1.0000    scale energy and forces
   NPACO  =    256;   APACO  = 16.0  distance and # of slots for P.C.
   PSTRESS=    0.0 pullay stress

  Mass of Ions in am
   POMASS =  12.01 14.00 58.69 55.85
  Ionic Valenz
   ZVAL   =   4.00  5.00 10.00  8.00
  Atomic Wigner-Seitz radii
   RWIGS  =  -1.00 -1.00 -1.00 -1.00
  virtual crystal weights 
   VCA    =   1.00  1.00  1.00  1.00
   NELECT =     251.0000    total number of electrons
   NUPDOWN=      -1.0000    fix difference up-down

 DOS related values:
   EMIN   =  10.00;   EMAX   =-10.00  energy-range for DOS
   EFERMI =   0.00
   ISMEAR =     0;   SIGMA  =   0.10  broadening in eV -4-tet -1-fermi 0-gaus

 Electronic relaxation 2 (details)
   IALGO  =     53    algorithm
   LDIAG  =      T    sub-space diagonalisation (order eigenvalues)
   LSUBROT=      F    optimize rotation matrix (better conditioning)
   TURBO    =      0    0=normal 1=particle mesh
   IRESTART =      0    0=no restart 2=restart with 2 vectors
   NREBOOT  =      0    no. of reboots
   NMIN     =      0    reboot dimension
   EREF     =   0.00    reference energy to select bands
   IMIX   =      4    mixing-type and parameters
     AMIX     =   0.40;   BMIX     =  1.00
     AMIX_MAG =   1.60;   BMIX_MAG =  1.00
     AMIN     =   0.10
     WC   =   100.;   INIMIX=   1;  MIXPRE=   1;  MAXMIX= -45

 Intra band minimization:
   WEIMIN = 0.0000     energy-eigenvalue tresh-hold
   EBREAK =  0.16E-06  absolut break condition
   DEPER  =   0.30     relativ break condition  

   TIME   =   0.20     timestep for ELM

  volume/ion in A,a.u.               =      53.85       363.37
  Fermi-wavevector in a.u.,A,eV,Ry     =   0.702478  1.327490  6.714132  0.493475
  Thomas-Fermi vector in A             =   1.787188
 
 Write flags
   LWAVE        =      T    write WAVECAR
   LDOWNSAMPLE  =      F    k-point downsampling of WAVECAR
   LCHARG       =      T    write CHGCAR
   LVTOT        =      F    write LOCPOT, total local potential
   LVHAR        =      T    write LOCPOT, Hartree potential only
   LELF         =      F    write electronic localiz. function (ELF)
   LORBIT       =     11    0 simple, 1 ext, 2 COOP (PROOUT), +10 PAW based schemes


 Dipole corrections
   LMONO  =      F    monopole corrections only (constant potential shift)
   LDIPOL =      T    correct potential (dipole corrections)
   IDIPOL =      3    1-x, 2-y, 3-z, 4-all directions 
   EPSILON=  1.0000000 bulk dielectric constant

 Exchange correlation treatment:
   GGA     =    PE    GGA type
   LEXCH   =     8    internal setting for exchange type
   VOSKOWN=      0    Vosko Wilk Nusair interpolation
   EXXOEP  =     0    0=HF, 1=EXX-LHF (local Hartree Fock) 2=EXX OEP
   LHFCALC =     T    Hartree Fock is set to
   LSYMGRAD=     F    symmetrize gradient (conserves proper symmetry)
   PRECFOCK=normal    Normal, Fast or Accurate (Low or Medium for compatibility)
   LRHFCALC=     F    long range Hartree Fock
   LRSCOR  =     F    long range correlation only (use DFT for short range part)
   LTHOMAS =     F    Thomas Fermi screening in HF
   LMODELHF=     F    short range full HF, long range fraction AEXX
   ENCUT4O =  -1.0   cutoff for four orbital integrals eV
   LMAXFOCK=     4    L truncation for augmentation on plane wave grid
   LMAXFOCKAE=  -1    L truncation for all-electron charge restoration on plane wave grid
   NMAXFOCKAE=   1    number of basis functions for all-electron charge restoration
   LFOCKAEDFT=     F  apply the AE augmentation even for DFT
   NKREDX  =     1    reduce k-point grid by
   NKREDY  =     1    reduce k-point grid by
   NKREDZ  =     1    reduce k-point grid by
   SHIFTRED=     F    shift reduced grid of Gamma
   HFKIDENT=     F    idential grid for each k-point
   ODDONLY =     F    use only odd q-grid points
   EVENONLY=     F    use only even q-grid points
   HFALPHA =   -1.0000 decay constant for conv. correction
   MCALPHA =    0.0000 extent of test-charge in conv. correction in multipole expansion
   AEXX    =    0.2500 exact exchange contribution
   HFSCREEN=    0.2000 screening length (either q_TF or 0.3 A-1)
   HFSCREENC=   0.2000 screening length for correlation (either q_TF or 0.3 A-1)
   HFRCUT  =    0.0000 spherical cutoff for potential kernel
   ALDAX   =    0.7500 LDA exchange part
   AGGAX   =    0.7500 GGA exchange part
   ALDAC   =    1.0000 LDA correlation
   AGGAC   =    1.0000 GGA correlation
   ENCUTFOCK=  -1.0 apply spherical cutoff to Coloumb kernel
   NBANDSGWLOW=     1    first orbital included in HF term
   NBLOCK_FOCK=    64    blocking factor in FOCK_ACC
 Linear response parameters
   LEPSILON=     F    determine dielectric tensor
   LRPA    =     F    only Hartree local field effects (RPA)
   LNABLA  =     F    use nabla operator in PAW spheres
   LVEL    =     F    velocity operator in full k-point grid
   LINTERFAST=   F  fast interpolation
   KINTER  =     0    interpolate to denser k-point grid
   CSHIFT  =0.1000    complex shift for real part using Kramers Kronig
   OMEGAMAX=  -1.0    maximum frequency
   DEG_THRESHOLD= 0.2000000E-02 threshold for treating states as degnerate
   RTIME   =   -0.100 relaxation time in fs
  (WPLASMAI=    0.000 imaginary part of plasma frequency in eV, 0.658/RTIME)
   DFIELD  = 0.0000000 0.0000000 0.0000000 field for delta impulse in time
 
 Orbital magnetization related:
   ORBITALMAG=     F  switch on orbital magnetization
   LCHIMAG   =     F  perturbation theory with respect to B field
   DQ        =  0.001000  dq finite difference perturbation B field
   LLRAUG    =     F  two centre corrections for induced B field



--------------------------------------------------------------------------------------------------------


 Static calculation
 charge density and potential will be updated during run
 spin polarized calculation
 Conjugate gradient for all bands (Freysoldt, et al. PRB 79, 241103 (2009))
 perform sub-space diagonalisation
    before iterative eigenvector-optimisation
 modified Broyden-mixing scheme, WC =      100.0
 initial mixing is a Kerker type mixing with AMIX =  0.4000 and BMIX =      1.0000
 Hartree-type preconditioning will be used
 using additional bands           31
 reciprocal scheme for non local part
 use partial core corrections
 no Harris-corrections to forces 
 use gradient corrections 
 use of overlap-Matrix (Vanderbilt PP)
 Gauss-broadening in eV      SIGMA  =   0.10


--------------------------------------------------------------------------------------------------------


  energy-cutoff  :      500.00
  volume of cell :     3176.88
      direct lattice vectors                 reciprocal lattice vectors
    12.810000000  0.000000000  0.000000000     0.078064012  0.000000000  0.000000000
     0.000000000 12.400000000  0.000000000     0.000000000  0.080645161  0.000000000
     0.000000000  0.000000000 20.000000000     0.000000000  0.000000000  0.050000000

  length of vectors
    12.810000000 12.400000000 20.000000000     0.078064012  0.080645161  0.050000000


 
 old parameters found on file WAVECAR:
  energy-cutoff  :      500.00
  volume of cell :     3176.88
      direct lattice vectors                 reciprocal lattice vectors
    12.810000000  0.000000000  0.000000000     0.078064012  0.000000000  0.000000000
     0.000000000 12.400000000  0.000000000     0.000000000  0.080645161  0.000000000
     0.000000000  0.000000000 20.000000000     0.000000000  0.000000000  0.050000000

  length of vectors

 
 k-points in units of 2pi/SCALE and weight: KPOINTS created by Atomic Simulation Env
   0.01951600  0.02016129  0.00000000       0.500
  -0.01951600  0.02016129  0.00000000       0.500
 
 k-points in reciprocal lattice and weights: KPOINTS created by Atomic Simulation Env
   0.25000000  0.25000000  0.00000000       0.500
  -0.25000000  0.25000000  0.00000000       0.500
 
 position of ions in fractional coordinates (direct lattice) 
   0.22259991  0.00205584  0.50029807
   0.05742299  0.10204694  0.49902043
   0.11135699  0.00137046  0.49919250
   0.27819262  0.10318685  0.50265264
   0.22483957  0.20499890  0.50494231
   0.05662594  0.30238225  0.49947329
   0.11290717  0.20304367  0.50125456
   0.28128521  0.30606654  0.51036401
   0.22174398  0.40665352  0.50976311
   0.05406496  0.50308799  0.49963581
   0.11062805  0.40328316  0.50168431
   0.22173732  0.60208899  0.50468696
   0.05360819  0.70163281  0.49686878
   0.10999900  0.60302776  0.49944530
   0.28212328  0.70117668  0.50046362
   0.22359837  0.80015393  0.49860581
   0.05593537  0.90095082  0.49765509
   0.11117186  0.80048355  0.49770583
   0.27735476  0.90223623  0.49920375
   0.55521554  0.00161627  0.49794824
   0.38892185  0.10181068  0.50169117
   0.44437796  0.00215345  0.49931344
   0.61228355  0.09957297  0.49769533
   0.55708350  0.19794115  0.50067480
   0.39420462  0.30172442  0.51122258
   0.44591948  0.20053602  0.50377237
   0.61466559  0.29505214  0.50019381
   0.56052624  0.39187173  0.50754916
   0.55463555  0.80464474  0.49664027
   0.38867401  0.90250647  0.49911992
   0.44311111  0.80333991  0.49842994
   0.61037849  0.90268704  0.49676951
   0.89002709  0.00074620  0.49613252
   0.72348252  0.10006486  0.49596452
   0.77848083  0.00033116  0.49567989
   0.94611422  0.10094552  0.49684697
   0.89092106  0.20073828  0.49611757
   0.72485136  0.29822421  0.49684836
   0.77989993  0.19937360  0.49565382
   0.94505235  0.30157350  0.49699169
   0.88850140  0.40135149  0.49703060
   0.71717725  0.49724595  0.49949522
   0.77717259  0.39970815  0.49763682
   0.94208360  0.50232950  0.49755851
   0.88358789  0.60117152  0.49657922
   0.71479326  0.70177046  0.49614386
   0.76993570  0.60017233  0.49703693
   0.94123834  0.70044006  0.49605588
   0.88657361  0.80039116  0.49602150
   0.72168403  0.90154821  0.49594093
   0.77459675  0.80030796  0.49598470
   0.94402055  0.90026381  0.49652010
   0.27025253  0.50460894  0.51681041
   0.45562162  0.39297657  0.51954519
   0.60950350  0.49028595  0.50408223
   0.39285078  0.70324692  0.49962036
   0.60634875  0.70659984  0.49513665
   0.39721963  0.51230864  0.56294199
   0.50617581  0.59746132  0.49751686
 
 position of ions in cartesian coordinates  (Angst):
   2.85150485  0.02549238 10.00596150
   0.73558849  1.26538206  9.98040856
   1.42648303  0.01699370  9.98385004
   3.56364752  1.27951697 10.05305285
   2.88019488  2.54198636 10.09884617
   0.72537833  3.74953994  9.98946582
   1.44634086  2.51774155 10.02509115
   3.60326357  3.79522507 10.20728012
   2.84054038  5.04250360 10.19526224
   0.69257216  6.23829104  9.99271611
   1.41714537  5.00071115 10.03368628
   2.84045512  7.46590345 10.09373911
   0.68672089  8.70024689  9.93737567
   1.40908713  7.47754422  9.98890596
   3.61399922  8.69459084 10.00927231
   2.86429508  9.92190868  9.97211613
   0.71653208 11.17179016  9.95310181
   1.42411155  9.92599602  9.95411654
   3.55291447 11.18772921  9.98407498
   7.11231101  0.02004172  9.95896477
   4.98208888  1.26245246 10.03382338
   5.69248166  0.02670277  9.98626880
   7.84335225  1.23470486  9.95390653
   7.13623968  2.45447024 10.01349609
   5.04976113  3.74138285 10.22445157
   5.71222850  2.48664664 10.07544738
   7.87386624  3.65864655 10.00387617
   7.18034115  4.85920945 10.15098329
   7.10488143  9.97759483  9.93280542
   4.97891411 11.19108023  9.98239840
   5.67625327  9.96141493  9.96859875
   7.81894851 11.19331935  9.93539010
  11.40124702  0.00925291  9.92265047
   9.26781111  1.24080428  9.91929049
   9.97233939  0.00410633  9.91359787
  12.11972314  1.25172449  9.93693942
  11.41269876  2.48915462  9.92235140
   9.28534593  3.69798025  9.93696714
   9.99051815  2.47223267  9.91307644
  12.10612063  3.73951143  9.93983388
  11.38170299  4.97675850  9.94061198
   9.18704054  6.16584978  9.98990439
   9.95558091  4.95638104  9.95273645
  12.06809096  6.22888582  9.95117012
  11.31876090  7.45452688  9.93158449
   9.15650167  8.70195369  9.92287713
   9.86287636  7.44213691  9.94073864
  12.05726307  8.68545671  9.92111769
  11.35700800  9.92485043  9.92042995
   9.24477241 11.17919784  9.91881855
   9.92258431  9.92381865  9.91969393
  12.09290330 11.16327124  9.93040210
   3.46193487  6.25715085 10.33620813
   5.83651299  4.87290946 10.39090373
   7.80773984  6.07954576 10.08164460
   5.03241852  8.72026179  9.99240724
   7.76732750  8.76183797  9.90273294
   5.08838348  6.35262715 11.25883972
   6.48411209  7.40852037  9.95033713
 


--------------------------------------------------------------------------------------------------------


 k-point  1 :   0.2500 0.2500 0.0000  plane waves:   80679
 k-point  2 :  -0.2500 0.2500 0.0000  plane waves:   80679

 maximum and minimum number of plane-waves per node :      2047     1989

 maximum number of plane-waves:     80679
 maximum index in each direction: 
   IXMAX=   23   IYMAX=   22   IZMAX=   36
   IXMIN=  -23   IYMIN=  -22   IZMIN=  -36


 parallel 3D FFT for wavefunctions:
    minimum data exchange during FFTs selected (reduces bandwidth)
 parallel 3D FFT for charge:
    minimum data exchange during FFTs selected (reduces bandwidth)


 FFT grid for exact exchange (Hartree Fock) 
  NGX = 72; NGY = 70; NGZ =112

 
 Radii for the augmentation spheres in the non-local exchange
 for species   1 augmentation radius   0.874 (default was   0.699)
       energy cutoff for augmentation   2000.0
 for species   2 augmentation radius   0.886 (default was   0.709)
       energy cutoff for augmentation   2000.0
 for species   3 augmentation radius   1.224 (default was   0.979)
       energy cutoff for augmentation   2000.0
 for species   4 augmentation radius   1.263 (default was   1.010)
       energy cutoff for augmentation   2000.0

 real space projection operators:
  total allocation   :       2544.98 KBytes
  max/ min on nodes  :         90.86         42.75

 Maximum index for augmentation-charges in exchange          119
  SETUP_FOCK is finished

 total amount of memory used by VASP MPI-rank0   139267. kBytes
=======================================================================

   base      :      30000. kBytes
   nonl-proj :       4307. kBytes
   fftplans  :      11188. kBytes
   grid      :      29312. kBytes
   one-center:         62. kBytes
   HF        :         23. kBytes
   nonlr-proj:       1648. kBytes
   wavefun   :      62727. kBytes
 
     INWAV:  cpu time    5.3442: real time    5.3597
 Broyden mixing: mesh for mixing (old mesh)
   NGX = 47   NGY = 45   NGZ = 73
  (NGX  =192   NGY  =180   NGZ  =300)
  gives a total of 154395 points

 charge density for first step will be calculated from the start-wavefunctions


--------------------------------------------------------------------------------------------------------


 Maximum index for augmentation-charges          615 (set IRDMAX)


--------------------------------------------------------------------------------------------------------


 initial charge from wavefunction
 First call to EWALD:  gamma=   0.121
 Maximum number of real-space cells 3x 3x 2
 Maximum number of reciprocal cells 2x 2x 4

    FEWALD:  cpu time    0.0031: real time    0.0031


--------------------------------------- Iteration      1(   1)  ---------------------------------------


    POTLOK:  cpu time    1.0271: real time    1.0359
    SETDIJ:  cpu time    1.2559: real time    1.2595
    TRIAL :  cpu time  219.1113: real time  219.8275
    CORREC:  cpu time    0.0011: real time    0.0011
    CHARGE:  cpu time    1.2121: real time    1.2153
    --------------------------------------------
      LOOP:  cpu time  222.6295: real time  223.3636

 eigenvalue-minimisations  :     0
 total energy-change (2. order) :-0.6149125E+03  (-0.5308839E+00)
 number of electron     251.0000006 magnetization       2.8816633
 augmentation part       16.4659268 magnetization       1.9956634

 DIPCOR: dipole corrections for dipol
 direction  3 min pos     1,
 dipolmoment           0.000000      0.000000     -0.083040 electrons x Angstroem
 Tr[quadrupol]     -7010.532334

 energy correction for charged system         0.000000 eV
 dipol+quadrupol energy correction           -0.000197 eV
 added-field ion interaction          0.061747 eV  (added to PSCEN)


 Free energy of the ion-electron system (eV)
  ---------------------------------------------------
  alpha Z        PSCENC =       103.80304267
  Ewald energy   TEWEN  =     41237.39118418
  -Hartree energ DENC   =    -50365.09448782
  -exchange      EXHF   =       573.73130296
  -V(xc)+E(xc)   XCENC  =       652.88062658
  PAW double counting   =     27408.15692605   -27509.44174923
  entropy T*S    EENTRO =        -0.01682573
  eigenvalues    EBANDS =     -3248.33121086
  atomic energy  EATOM  =     10532.01363420
  ---------------------------------------------------
  free energy    TOTEN  =      -614.91254269 eV

  energy without entropy =     -614.89571696  energy(sigma->0) =     -614.90412982
  exchange ACFDT corr.  =        -0.02055828  see jH, gK, PRB 81, 115126


--------------------------------------------------------------------------------------------------------




--------------------------------------- Iteration      1(   2)  ---------------------------------------


    POTLOK:  cpu time    1.0528: real time    1.0560
    SETDIJ:  cpu time    1.2414: real time    1.2447
    TRIAL :  cpu time  218.4054: real time  219.0852
    CORREC:  cpu time    0.0012: real time    0.0012
    CHARGE:  cpu time    1.2081: real time    1.2115
    --------------------------------------------
      LOOP:  cpu time  221.9104: real time  222.6052

 eigenvalue-minimisations  :     0
 total energy-change (2. order) :-0.4304408E+00  (-0.4984178E+00)
 number of electron     251.0000006 magnetization       2.9381826
 augmentation part       16.4612560 magnetization       2.0613648

 DIPCOR: dipole corrections for dipol
 direction  3 min pos     1,
 dipolmoment           0.000000      0.000000     -0.071647 electrons x Angstroem
 Tr[quadrupol]     -7010.374860

 energy correction for charged system         0.000000 eV
 dipol+quadrupol energy correction           -0.000147 eV
 added-field ion interaction          0.053276 eV  (added to PSCEN)


 Free energy of the ion-electron system (eV)
  ---------------------------------------------------
  alpha Z        PSCENC =       103.79462158
  Ewald energy   TEWEN  =     41237.39118418
  -Hartree energ DENC   =    -50353.04003999
  -exchange      EXHF   =       573.76988745
  -V(xc)+E(xc)   XCENC  =       652.60911330
  PAW double counting   =     27542.30306653   -27643.97615906
  entropy T*S    EENTRO =        -0.01116943
  eigenvalues    EBANDS =     -3260.19146599
  atomic energy  EATOM  =     10532.01363420
  ---------------------------------------------------
  free energy    TOTEN  =      -615.34298353 eV

  energy without entropy =     -615.33181410  energy(sigma->0) =     -615.33739882
  exchange ACFDT corr.  =        -0.02062559  see jH, gK, PRB 81, 115126


--------------------------------------------------------------------------------------------------------




--------------------------------------- Iteration      1(   3)  ---------------------------------------


    POTLOK:  cpu time    1.0670: real time    1.0699
    SETDIJ:  cpu time    1.2375: real time    1.2407
    TRIAL :  cpu time  218.4299: real time  219.1223
    CORREC:  cpu time    0.0012: real time    0.0012
    CHARGE:  cpu time    1.2087: real time    1.2121
    --------------------------------------------
      LOOP:  cpu time  221.9466: real time  222.6526

 eigenvalue-minimisations  :     0
 total energy-change (2. order) :-0.3873001E+00  (-0.3040206E+00)
 number of electron     251.0000006 magnetization       2.9713743
 augmentation part       16.4525939 magnetization       2.1150207

 DIPCOR: dipole corrections for dipol
 direction  3 min pos     1,
 dipolmoment           0.000000      0.000000     -0.110233 electrons x Angstroem
 Tr[quadrupol]     -7010.275817

 energy correction for charged system         0.000000 eV
 dipol+quadrupol energy correction           -0.000347 eV
 added-field ion interaction          0.081968 eV  (added to PSCEN)


 Free energy of the ion-electron system (eV)
  ---------------------------------------------------
  alpha Z        PSCENC =       103.82311246
  Ewald energy   TEWEN  =     41237.39118418
  -Hartree energ DENC   =    -50340.46295037
  -exchange      EXHF   =       573.83969994
  -V(xc)+E(xc)   XCENC  =       652.26936106
  PAW double counting   =     27714.86268180   -27816.34427457
  entropy T*S    EENTRO =        -0.00690418
  eigenvalues    EBANDS =     -3273.11156291
  atomic energy  EATOM  =     10532.01363420
  ---------------------------------------------------
  free energy    TOTEN  =      -615.73028365 eV

  energy without entropy =     -615.72337947  energy(sigma->0) =     -615.72683156
  exchange ACFDT corr.  =        -0.00983976  see jH, gK, PRB 81, 115126


--------------------------------------------------------------------------------------------------------




--------------------------------------- Iteration      1(   4)  ---------------------------------------


    POTLOK:  cpu time    1.0706: real time    1.0741
    SETDIJ:  cpu time    1.2364: real time    1.2397
    TRIAL :  cpu time  218.3381: real time  219.0033
    CORREC:  cpu time    0.0013: real time    0.0013
    CHARGE:  cpu time    1.2076: real time    1.2116
    --------------------------------------------
      LOOP:  cpu time  221.8568: real time  222.5370

 eigenvalue-minimisations  :     0
 total energy-change (2. order) :-0.2320988E+00  (-0.1790007E+00)
 number of electron     251.0000006 magnetization       2.9855843
 augmentation part       16.4536331 magnetization       2.1504769

 DIPCOR: dipole corrections for dipol
 direction  3 min pos     1,
 dipolmoment           0.000000      0.000000     -0.132852 electrons x Angstroem
 Tr[quadrupol]     -7010.259282

 energy correction for charged system         0.000000 eV
 dipol+quadrupol energy correction           -0.000505 eV
 added-field ion interaction          0.098787 eV  (added to PSCEN)


 Free energy of the ion-electron system (eV)
  ---------------------------------------------------
  alpha Z        PSCENC =       103.83977458
  Ewald energy   TEWEN  =     41237.39118418
  -Hartree energ DENC   =    -50334.08225401
  -exchange      EXHF   =       574.05151116
  -V(xc)+E(xc)   XCENC  =       652.10336493
  PAW double counting   =     27864.24405312   -27965.33491816
  entropy T*S    EENTRO =        -0.00450795
  eigenvalues    EBANDS =     -3280.18182830
  atomic energy  EATOM  =     10532.01363420
  ---------------------------------------------------
  free energy    TOTEN  =      -615.96238248 eV

  energy without entropy =     -615.95787453  energy(sigma->0) =     -615.96012850
  exchange ACFDT corr.  =        -0.00462951  see jH, gK, PRB 81, 115126


--------------------------------------------------------------------------------------------------------




--------------------------------------- Iteration      1(   5)  ---------------------------------------


    POTLOK:  cpu time    1.0689: real time    1.0722
    SETDIJ:  cpu time    1.2366: real time    1.2398
    TRIAL :  cpu time  217.9954: real time  218.6707
    CORREC:  cpu time    0.0011: real time    0.0011
    CHARGE:  cpu time    1.2033: real time    1.2066
    --------------------------------------------
      LOOP:  cpu time  221.5081: real time  222.1975

 eigenvalue-minimisations  :     0
 total energy-change (2. order) :-0.1432759E+00  (-0.1150317E+00)
 number of electron     251.0000006 magnetization       2.9915042
 augmentation part       16.4629588 magnetization       2.1720556

 DIPCOR: dipole corrections for dipol
 direction  3 min pos     1,
 dipolmoment           0.000000      0.000000     -0.132081 electrons x Angstroem
 Tr[quadrupol]     -7010.310243

 energy correction for charged system         0.000000 eV
 dipol+quadrupol energy correction           -0.000499 eV
 added-field ion interaction          0.098214 eV  (added to PSCEN)


 Free energy of the ion-electron system (eV)
  ---------------------------------------------------
  alpha Z        PSCENC =       103.83920706
  Ewald energy   TEWEN  =     41237.39118418
  -Hartree energ DENC   =    -50335.23209116
  -exchange      EXHF   =       574.39287321
  -V(xc)+E(xc)   XCENC  =       652.15510696
  PAW double counting   =     27972.11047948   -28073.14524924
  entropy T*S    EENTRO =        -0.00318993
  eigenvalues    EBANDS =     -3279.62629509
  atomic energy  EATOM  =     10532.01363420
  ---------------------------------------------------
  free energy    TOTEN  =      -616.10565836 eV

  energy without entropy =     -616.10246843  energy(sigma->0) =     -616.10406339
  exchange ACFDT corr.  =        -0.00262834  see jH, gK, PRB 81, 115126


--------------------------------------------------------------------------------------------------------




--------------------------------------- Iteration      1(   6)  ---------------------------------------


    POTLOK:  cpu time    1.0669: real time    1.0701
    SETDIJ:  cpu time    1.2355: real time    1.2387
    TRIAL :  cpu time  217.5468: real time  218.2227
    CORREC:  cpu time    0.0012: real time    0.0012
    CHARGE:  cpu time    1.2087: real time    1.2121
    --------------------------------------------
      LOOP:  cpu time  221.0608: real time  221.7517

 eigenvalue-minimisations  :     0
 total energy-change (2. order) :-0.9511603E-01  (-0.7633469E-01)
 number of electron     251.0000006 magnetization       2.9945417
 augmentation part       16.4726985 magnetization       2.1857042

 DIPCOR: dipole corrections for dipol
 direction  3 min pos     1,
 dipolmoment           0.000000      0.000000     -0.132550 electrons x Angstroem
 Tr[quadrupol]     -7010.391683

 energy correction for charged system         0.000000 eV
 dipol+quadrupol energy correction           -0.000502 eV
 added-field ion interaction          0.098562 eV  (added to PSCEN)


 Free energy of the ion-electron system (eV)
  ---------------------------------------------------
  alpha Z        PSCENC =       103.83955227
  Ewald energy   TEWEN  =     41237.39118418
  -Hartree energ DENC   =    -50339.96668716
  -exchange      EXHF   =       574.74518042
  -V(xc)+E(xc)   XCENC  =       652.30066715
  PAW double counting   =     28041.27035654   -28142.42278749
  entropy T*S    EENTRO =        -0.00235690
  eigenvalues    EBANDS =     -3275.36868457
  atomic energy  EATOM  =     10532.01363420
  ---------------------------------------------------
  free energy    TOTEN  =      -616.20077438 eV

  energy without entropy =     -616.19841748  energy(sigma->0) =     -616.19959593
  exchange ACFDT corr.  =        -0.00174388  see jH, gK, PRB 81, 115126


--------------------------------------------------------------------------------------------------------




--------------------------------------- Iteration      1(   7)  ---------------------------------------


    POTLOK:  cpu time    1.0730: real time    1.0779
    SETDIJ:  cpu time    1.2409: real time    1.2450
    TRIAL :  cpu time  218.1355: real time  218.7914
    CORREC:  cpu time    0.0011: real time    0.0011
    CHARGE:  cpu time    1.2019: real time    1.2051
    --------------------------------------------
      LOOP:  cpu time  221.6548: real time  222.3273

 eigenvalue-minimisations  :     0
 total energy-change (2. order) :-0.6472748E-01  (-0.5149768E-01)
 number of electron     251.0000006 magnetization       2.9962781
 augmentation part       16.4795152 magnetization       2.1952078

 DIPCOR: dipole corrections for dipol
 direction  3 min pos     1,
 dipolmoment           0.000000      0.000000     -0.140791 electrons x Angstroem
 Tr[quadrupol]     -7010.466306

 energy correction for charged system         0.000000 eV
 dipol+quadrupol energy correction           -0.000567 eV
 added-field ion interaction          0.104690 eV  (added to PSCEN)


 Free energy of the ion-electron system (eV)
  ---------------------------------------------------
  alpha Z        PSCENC =       103.84561581
  Ewald energy   TEWEN  =     41237.39118418
  -Hartree energ DENC   =    -50344.50699817
  -exchange      EXHF   =       575.02688707
  -V(xc)+E(xc)   XCENC  =       652.43561095
  PAW double counting   =     28081.67836405   -28182.90440175
  entropy T*S    EENTRO =        -0.00180166
  eigenvalues    EBANDS =     -3271.24304130
  atomic energy  EATOM  =     10532.01363420
  ---------------------------------------------------
  free energy    TOTEN  =      -616.26550186 eV

  energy without entropy =     -616.26370020  energy(sigma->0) =     -616.26460103
  exchange ACFDT corr.  =        -0.00123306  see jH, gK, PRB 81, 115126


--------------------------------------------------------------------------------------------------------




--------------------------------------- Iteration      1(   8)  ---------------------------------------


    POTLOK:  cpu time    1.0604: real time    1.0641
    SETDIJ:  cpu time    1.2290: real time    1.2393
    TRIAL :  cpu time  217.8758: real time  218.5349
    CORREC:  cpu time    0.0010: real time    0.0010
    CHARGE:  cpu time    1.2002: real time    1.2039
    --------------------------------------------
      LOOP:  cpu time  221.3691: real time  222.0507

 eigenvalue-minimisations  :     0
 total energy-change (2. order) :-0.4439277E-01  (-0.3536364E-01)
 number of electron     251.0000006 magnetization       2.9973101
 augmentation part       16.4842860 magnetization       2.2025192

 DIPCOR: dipole corrections for dipol
 direction  3 min pos     1,
 dipolmoment           0.000000      0.000000     -0.150192 electrons x Angstroem
 Tr[quadrupol]     -7010.515516

 energy correction for charged system         0.000000 eV
 dipol+quadrupol energy correction           -0.000645 eV
 added-field ion interaction          0.111681 eV  (added to PSCEN)


 Free energy of the ion-electron system (eV)
  ---------------------------------------------------
  alpha Z        PSCENC =       103.85252819
  Ewald energy   TEWEN  =     41237.39118418
  -Hartree energ DENC   =    -50347.40030232
  -exchange      EXHF   =       575.22304877
  -V(xc)+E(xc)   XCENC  =       652.52633213
  PAW double counting   =     28103.26635403   -28204.51512917
  entropy T*S    EENTRO =        -0.00142853
  eigenvalues    EBANDS =     -3268.66574299
  atomic energy  EATOM  =     10532.01363420
  ---------------------------------------------------
  free energy    TOTEN  =      -616.30989463 eV

  energy without entropy =     -616.30846610  energy(sigma->0) =     -616.30918037
  exchange ACFDT corr.  =        -0.00062228  see jH, gK, PRB 81, 115126


--------------------------------------------------------------------------------------------------------




--------------------------------------- Iteration      1(   9)  ---------------------------------------


    POTLOK:  cpu time    1.0567: real time    1.0597
    SETDIJ:  cpu time    1.2336: real time    1.2369
    TRIAL :  cpu time  218.1692: real time  218.8583
    CORREC:  cpu time    0.0012: real time    0.0012
    CHARGE:  cpu time    1.2028: real time    1.2067
    --------------------------------------------
      LOOP:  cpu time  221.6650: real time  222.3694

 eigenvalue-minimisations  :     0
 total energy-change (2. order) :-0.3104077E-01  (-0.2494223E-01)
 number of electron     251.0000006 magnetization       2.9979418
 augmentation part       16.4880404 magnetization       2.2085734

 DIPCOR: dipole corrections for dipol
 direction  3 min pos     1,
 dipolmoment           0.000000      0.000000     -0.155842 electrons x Angstroem
 Tr[quadrupol]     -7010.540783

 energy correction for charged system         0.000000 eV
 dipol+quadrupol energy correction           -0.000694 eV
 added-field ion interaction          0.115882 eV  (added to PSCEN)


 Free energy of the ion-electron system (eV)
  ---------------------------------------------------
  alpha Z        PSCENC =       103.85668014
  Ewald energy   TEWEN  =     41237.39118418
  -Hartree energ DENC   =    -50348.84618288
  -exchange      EXHF   =       575.35294156
  -V(xc)+E(xc)   XCENC  =       652.57960805
  PAW double counting   =     28113.86631487   -28215.15240724
  entropy T*S    EENTRO =        -0.00117517
  eigenvalues    EBANDS =     -3267.40127974
  atomic energy  EATOM  =     10532.01363420
  ---------------------------------------------------
  free energy    TOTEN  =      -616.34093540 eV

  energy without entropy =     -616.33976023  energy(sigma->0) =     -616.34034781
  exchange ACFDT corr.  =        -0.00047851  see jH, gK, PRB 81, 115126


--------------------------------------------------------------------------------------------------------




--------------------------------------- Iteration      1(  10)  ---------------------------------------


    POTLOK:  cpu time    1.0504: real time    1.0533
    SETDIJ:  cpu time    1.2433: real time    1.2468
    TRIAL :  cpu time  218.3913: real time  219.0830
    CORREC:  cpu time    0.0012: real time    0.0012
    CHARGE:  cpu time    1.2059: real time    1.2096
    --------------------------------------------
      LOOP:  cpu time  221.8940: real time  222.6004

 eigenvalue-minimisations  :     0
 total energy-change (2. order) :-0.2213627E-01  (-0.1774832E-01)
 number of electron     251.0000006 magnetization       2.9983416
 augmentation part       16.4910479 magnetization       2.2137416

 DIPCOR: dipole corrections for dipol
 direction  3 min pos     1,
 dipolmoment           0.000000      0.000000     -0.157972 electrons x Angstroem
 Tr[quadrupol]     -7010.552359

 energy correction for charged system         0.000000 eV
 dipol+quadrupol energy correction           -0.000713 eV
 added-field ion interaction          0.117466 eV  (added to PSCEN)


 Free energy of the ion-electron system (eV)
  ---------------------------------------------------
  alpha Z        PSCENC =       103.85824465
  Ewald energy   TEWEN  =     41237.39118418
  -Hartree energ DENC   =    -50349.46384253
  -exchange      EXHF   =       575.43997883
  -V(xc)+E(xc)   XCENC  =       652.60950538
  PAW double counting   =     28118.61245113   -28219.95805906
  entropy T*S    EENTRO =        -0.00099956
  eigenvalues    EBANDS =     -3266.86499328
  atomic energy  EATOM  =     10532.01363420
  ---------------------------------------------------
  free energy    TOTEN  =      -616.36307167 eV

  energy without entropy =     -616.36207212  energy(sigma->0) =     -616.36257190
  exchange ACFDT corr.  =        -0.00038423  see jH, gK, PRB 81, 115126


--------------------------------------------------------------------------------------------------------




--------------------------------------- Iteration      1(  11)  ---------------------------------------


    POTLOK:  cpu time    1.0526: real time    1.0560
    SETDIJ:  cpu time    1.2532: real time    1.2575
    TRIAL :  cpu time  218.8403: real time  219.5681
    CORREC:  cpu time    0.0012: real time    0.0012
    CHARGE:  cpu time    1.2031: real time    1.2064
    --------------------------------------------
      LOOP:  cpu time  222.3528: real time  223.0960

 eigenvalue-minimisations  :     0
 total energy-change (2. order) :-0.1589056E-01  (-0.1278074E-01)
 number of electron     251.0000006 magnetization       2.9986037
 augmentation part       16.4933521 magnetization       2.2180934

 DIPCOR: dipole corrections for dipol
 direction  3 min pos     1,
 dipolmoment           0.000000      0.000000     -0.158844 electrons x Angstroem
 Tr[quadrupol]     -7010.559165

 energy correction for charged system         0.000000 eV
 dipol+quadrupol energy correction           -0.000721 eV
 added-field ion interaction          0.118114 eV  (added to PSCEN)


 Free energy of the ion-electron system (eV)
  ---------------------------------------------------
  alpha Z        PSCENC =       103.85888510
  Ewald energy   TEWEN  =     41237.39118418
  -Hartree energ DENC   =    -50349.73640807
  -exchange      EXHF   =       575.50182324
  -V(xc)+E(xc)   XCENC  =       652.62689981
  PAW double counting   =     28120.53376190   -28221.93534394
  entropy T*S    EENTRO =        -0.00087469
  eigenvalues    EBANDS =     -3266.63239909
  atomic energy  EATOM  =     10532.01363420
  ---------------------------------------------------
  free energy    TOTEN  =      -616.37896224 eV

  energy without entropy =     -616.37808755  energy(sigma->0) =     -616.37852489
  exchange ACFDT corr.  =        -0.00032069  see jH, gK, PRB 81, 115126


--------------------------------------------------------------------------------------------------------




--------------------------------------- Iteration      1(  12)  ---------------------------------------


    POTLOK:  cpu time    1.0390: real time    1.0495
    SETDIJ:  cpu time    1.2373: real time    1.2419
    TRIAL :  cpu time  217.9002: real time  219.4487
    CORREC:  cpu time    0.0009: real time    0.0009
    CHARGE:  cpu time    1.2012: real time    1.2047
    --------------------------------------------
      LOOP:  cpu time  221.3805: real time  222.9528

 eigenvalue-minimisations  :     0
 total energy-change (2. order) :-0.1153620E-01  (-0.9311583E-02)
 number of electron     251.0000006 magnetization       2.9987812
 augmentation part       16.4951059 magnetization       2.2215836

 DIPCOR: dipole corrections for dipol
 direction  3 min pos     1,
 dipolmoment           0.000000      0.000000     -0.159947 electrons x Angstroem
 Tr[quadrupol]     -7010.565212

 energy correction for charged system         0.000000 eV
 dipol+quadrupol energy correction           -0.000731 eV
 added-field ion interaction          0.118935 eV  (added to PSCEN)


 Free energy of the ion-electron system (eV)
  ---------------------------------------------------
  alpha Z        PSCENC =       103.85969549
  Ewald energy   TEWEN  =     41237.39118418
  -Hartree energ DENC   =    -50349.91269063
  -exchange      EXHF   =       575.54947920
  -V(xc)+E(xc)   XCENC  =       652.63857514
  PAW double counting   =     28121.38994004   -28222.82905381
  entropy T*S    EENTRO =        -0.00078377
  eigenvalues    EBANDS =     -3266.49038756
  atomic energy  EATOM  =     10532.01363420
  ---------------------------------------------------
  free energy    TOTEN  =      -616.39049844 eV

  energy without entropy =     -616.38971467  energy(sigma->0) =     -616.39010656
  exchange ACFDT corr.  =        -0.00027653  see jH, gK, PRB 81, 115126


--------------------------------------------------------------------------------------------------------




--------------------------------------- Iteration      1(  13)  ---------------------------------------


    POTLOK:  cpu time    1.0439: real time    1.0467
    SETDIJ:  cpu time    1.2344: real time    1.2377
    TRIAL :  cpu time  218.1454: real time  218.8097
    CORREC:  cpu time    0.0012: real time    0.0012
    CHARGE:  cpu time    1.2086: real time    1.2119
    --------------------------------------------
      LOOP:  cpu time  221.6361: real time  222.3142

 eigenvalue-minimisations  :     0
 total energy-change (2. order) :-0.8460461E-02  (-0.6846131E-02)
 number of electron     251.0000006 magnetization       2.9989047
 augmentation part       16.4965336 magnetization       2.2242351

 DIPCOR: dipole corrections for dipol
 direction  3 min pos     1,
 dipolmoment           0.000000      0.000000     -0.161433 electrons x Angstroem
 Tr[quadrupol]     -7010.571121

 energy correction for charged system         0.000000 eV
 dipol+quadrupol energy correction           -0.000745 eV
 added-field ion interaction          0.120040 eV  (added to PSCEN)


 Free energy of the ion-electron system (eV)
  ---------------------------------------------------
  alpha Z        PSCENC =       103.86078682
  Ewald energy   TEWEN  =     41237.39118418
  -Hartree energ DENC   =    -50350.08673556
  -exchange      EXHF   =       575.58889636
  -V(xc)+E(xc)   XCENC  =       652.64819361
  PAW double counting   =     28122.17057337   -28223.63321646
  entropy T*S    EENTRO =        -0.00071629
  eigenvalues    EBANDS =     -3266.35149165
  atomic energy  EATOM  =     10532.01363420
  ---------------------------------------------------
  free energy    TOTEN  =      -616.39895890 eV

  energy without entropy =     -616.39824261  energy(sigma->0) =     -616.39860076
  exchange ACFDT corr.  =        -0.00024497  see jH, gK, PRB 81, 115126


--------------------------------------------------------------------------------------------------------




--------------------------------------- Iteration      1(  14)  ---------------------------------------


    POTLOK:  cpu time    1.1526: real time    1.1580
    SETDIJ:  cpu time    1.2529: real time    1.2565
    TRIAL :  cpu time  217.8657: real time  218.5405
    CORREC:  cpu time    0.0011: real time    0.0011
    CHARGE:  cpu time    1.2056: real time    1.2091
    --------------------------------------------
      LOOP:  cpu time  221.4804: real time  222.1719

 eigenvalue-minimisations  :     0
 total energy-change (2. order) :-0.6259629E-02  (-0.5082554E-02)
 number of electron     251.0000006 magnetization       2.9989923
 augmentation part       16.4977471 magnetization       2.2261994

 DIPCOR: dipole corrections for dipol
 direction  3 min pos     1,
 dipolmoment           0.000000      0.000000     -0.162825 electrons x Angstroem
 Tr[quadrupol]     -7010.576446

 energy correction for charged system         0.000000 eV
 dipol+quadrupol energy correction           -0.000758 eV
 added-field ion interaction          0.121074 eV  (added to PSCEN)


 Free energy of the ion-electron system (eV)
  ---------------------------------------------------
  alpha Z        PSCENC =       103.86180864
  Ewald energy   TEWEN  =     41237.39118418
  -Hartree energ DENC   =    -50350.27628444
  -exchange      EXHF   =       575.62275990
  -V(xc)+E(xc)   XCENC  =       652.65712211
  PAW double counting   =     28123.31322512   -28224.79603410
  entropy T*S    EENTRO =        -0.00066551
  eigenvalues    EBANDS =     -3266.19191785
  atomic energy  EATOM  =     10532.01363420
  ---------------------------------------------------
  free energy    TOTEN  =      -616.40521853 eV

  energy without entropy =     -616.40455302  energy(sigma->0) =     -616.40488577
  exchange ACFDT corr.  =        -0.00022192  see jH, gK, PRB 81, 115126


--------------------------------------------------------------------------------------------------------




--------------------------------------- Iteration      1(  15)  ---------------------------------------


    POTLOK:  cpu time    1.0355: real time    1.0385
    SETDIJ:  cpu time    1.2521: real time    1.2554
    TRIAL :  cpu time  218.5402: real time  219.1967
    CORREC:  cpu time    0.0009: real time    0.0009
    CHARGE:  cpu time    1.2009: real time    1.2053
    --------------------------------------------
      LOOP:  cpu time  222.0320: real time  222.7037

 eigenvalue-minimisations  :     0
 total energy-change (2. order) :-0.4670880E-02  (-0.3804704E-02)
 number of electron     251.0000006 magnetization       2.9990552
 augmentation part       16.4987563 magnetization       2.2276632

 DIPCOR: dipole corrections for dipol
 direction  3 min pos     1,
 dipolmoment           0.000000      0.000000     -0.163827 electrons x Angstroem
 Tr[quadrupol]     -7010.580932

 energy correction for charged system         0.000000 eV
 dipol+quadrupol energy correction           -0.000767 eV
 added-field ion interaction          0.121819 eV  (added to PSCEN)


 Free energy of the ion-electron system (eV)
  ---------------------------------------------------
  alpha Z        PSCENC =       103.86254422
  Ewald energy   TEWEN  =     41237.39118418
  -Hartree energ DENC   =    -50350.46328379
  -exchange      EXHF   =       575.65194085
  -V(xc)+E(xc)   XCENC  =       652.66520012
  PAW double counting   =     28124.88285727   -28226.38545795
  entropy T*S    EENTRO =        -0.00062693
  eigenvalues    EBANDS =     -3266.02784299
  atomic energy  EATOM  =     10532.01363420
  ---------------------------------------------------
  free energy    TOTEN  =      -616.40988941 eV

  energy without entropy =     -616.40926248  energy(sigma->0) =     -616.40957594
  exchange ACFDT corr.  =        -0.00020480  see jH, gK, PRB 81, 115126


--------------------------------------------------------------------------------------------------------




--------------------------------------- Iteration      1(  16)  ---------------------------------------


    POTLOK:  cpu time    1.0349: real time    1.0384
    SETDIJ:  cpu time    1.2342: real time    1.2386
    TRIAL :  cpu time  218.0931: real time  218.7431
    CORREC:  cpu time    0.0011: real time    0.0011
    CHARGE:  cpu time    1.1995: real time    1.2061
    --------------------------------------------
      LOOP:  cpu time  221.5656: real time  222.2341

 eigenvalue-minimisations  :     0
 total energy-change (2. order) :-0.3512787E-02  (-0.2876600E-02)
 number of electron     251.0000006 magnetization       2.9991010
 augmentation part       16.4995526 magnetization       2.2287511

 DIPCOR: dipole corrections for dipol
 direction  3 min pos     1,
 dipolmoment           0.000000      0.000000     -0.164497 electrons x Angstroem
 Tr[quadrupol]     -7010.584618

 energy correction for charged system         0.000000 eV
 dipol+quadrupol energy correction           -0.000774 eV
 added-field ion interaction          0.122318 eV  (added to PSCEN)


 Free energy of the ion-electron system (eV)
  ---------------------------------------------------
  alpha Z        PSCENC =       103.86303669
  Ewald energy   TEWEN  =     41237.39118418
  -Hartree energ DENC   =    -50350.62658793
  -exchange      EXHF   =       575.67684058
  -V(xc)+E(xc)   XCENC  =       652.67198131
  PAW double counting   =     28126.71229112   -28228.23168156
  entropy T*S    EENTRO =        -0.00059740
  eigenvalues    EBANDS =     -3265.88347386
  atomic energy  EATOM  =     10532.01363420
  ---------------------------------------------------
  free energy    TOTEN  =      -616.41340220 eV

  energy without entropy =     -616.41280479  energy(sigma->0) =     -616.41310350
  exchange ACFDT corr.  =        -0.00019194  see jH, gK, PRB 81, 115126


--------------------------------------------------------------------------------------------------------




--------------------------------------- Iteration      1(  17)  ---------------------------------------


    POTLOK:  cpu time    1.0366: real time    1.0405
    SETDIJ:  cpu time    1.2370: real time    1.2408
    TRIAL :  cpu time  218.2600: real time  218.9216
    CORREC:  cpu time    0.0011: real time    0.0011
    CHARGE:  cpu time    1.2022: real time    1.2055
    --------------------------------------------
      LOOP:  cpu time  221.7398: real time  222.4167

 eigenvalue-minimisations  :     0
 total energy-change (2. order) :-0.2667022E-02  (-0.2195624E-02)
 number of electron     251.0000006 magnetization       2.9991344
 augmentation part       16.5001579 magnetization       2.2295229

 DIPCOR: dipole corrections for dipol
 direction  3 min pos     1,
 dipolmoment           0.000000      0.000000     -0.165004 electrons x Angstroem
 Tr[quadrupol]     -7010.587559

 energy correction for charged system         0.000000 eV
 dipol+quadrupol energy correction           -0.000778 eV
 added-field ion interaction          0.122695 eV  (added to PSCEN)


 Free energy of the ion-electron system (eV)
  ---------------------------------------------------
  alpha Z        PSCENC =       103.86340898
  Ewald energy   TEWEN  =     41237.39118418
  -Hartree energ DENC   =    -50350.75659909
  -exchange      EXHF   =       575.69797304
  -V(xc)+E(xc)   XCENC  =       652.67742099
  PAW double counting   =     28128.56281001   -28230.09460022
  entropy T*S    EENTRO =        -0.00057470
  eigenvalues    EBANDS =     -3265.77070390
  atomic energy  EATOM  =     10532.01363420
  ---------------------------------------------------
  free energy    TOTEN  =      -616.41606922 eV

  energy without entropy =     -616.41549452  energy(sigma->0) =     -616.41578187
  exchange ACFDT corr.  =        -0.00018220  see jH, gK, PRB 81, 115126


--------------------------------------------------------------------------------------------------------




[...]
  in kB     -21.68509   -19.62995    -0.12913    -5.13217    -0.30435    -0.24127
  external pressure =      -13.81 kB  Pullay stress =        0.00 kB


 VOLUME and BASIS-vectors are now :
 -----------------------------------------------------------------------------
  energy-cutoff  :      500.00
  volume of cell :     3176.88
      direct lattice vectors                 reciprocal lattice vectors
    12.810000000  0.000000000  0.000000000     0.078064012  0.000000000  0.000000000
     0.000000000 12.400000000  0.000000000     0.000000000  0.080645161  0.000000000
     0.000000000  0.000000000 20.000000000     0.000000000  0.000000000  0.050000000

  length of vectors
    12.810000000 12.400000000 20.000000000     0.078064012  0.080645161  0.050000000


 FORCES acting on ions:
    Electron-Ion                     Ewald-Force                    Non-Local-Force
 -----------------------------------------------------------------------------------------------
   0.685E+01 -.633E+01 0.399E+01   -.688E+01 0.618E+01 -.403E+01   0.144E+00 -.635E-01 0.361E-01
   0.366E-01 -.566E+00 0.649E+01   0.151E+00 0.484E+00 -.652E+01   -.151E+00 0.587E-01 0.263E-01
   0.712E+01 0.323E+00 0.444E+01   -.713E+01 -.415E+00 -.439E+01   -.837E-01 0.679E-01 -.534E-01
   0.150E+02 0.564E+01 -.177E+01   -.152E+02 -.576E+01 0.184E+01   0.294E+00 0.187E+00 -.726E-01
   0.102E+02 0.889E+01 -.705E+01   -.103E+02 -.902E+01 0.700E+01   0.417E-01 0.715E-01 0.368E-01
   0.656E+01 0.748E+01 0.150E+02   -.646E+01 -.784E+01 -.151E+02   -.269E-01 0.345E+00 0.798E-01
   0.612E+01 0.967E+01 0.334E+01   -.617E+01 -.977E+01 -.329E+01   -.242E-02 0.108E+00 -.517E-01
   0.254E+02 0.286E+02 -.191E+02   -.256E+02 -.288E+02 0.191E+02   0.275E+00 0.874E-01 0.339E-02
   0.414E+02 0.570E+02 -.220E+01   -.432E+02 -.599E+02 0.168E+01   0.175E+01 0.328E+01 0.571E+00
   0.200E+02 0.140E+01 0.146E+02   -.202E+02 -.123E+01 -.144E+02   0.232E+00 -.137E+00 -.165E+00
   0.228E+02 0.139E+02 0.184E+02   -.233E+02 -.143E+02 -.185E+02   0.419E+00 0.265E+00 0.167E+00
   0.448E+02 -.459E+02 0.253E+02   -.466E+02 0.493E+02 -.262E+02   0.167E+01 -.312E+01 0.886E+00
   0.143E+02 -.953E+01 0.231E+02   -.144E+02 0.980E+01 -.231E+02   0.237E+00 -.259E+00 0.704E-01
   0.238E+02 -.925E+01 0.238E+02   -.241E+02 0.988E+01 -.239E+02   0.188E+00 -.531E+00 0.137E+00
   0.437E+02 -.203E+02 0.301E+02   -.468E+02 0.202E+02 -.305E+02   0.281E+01 -.427E-01 0.311E+00
   0.209E+02 -.159E+02 0.185E+02   -.211E+02 0.157E+02 -.185E+02   0.251E+00 -.973E-01 0.752E-01
   0.392E+01 -.390E+01 0.988E+01   -.377E+01 0.396E+01 -.992E+01   -.113E+00 0.131E-02 0.334E-01
   0.860E+01 -.883E+01 0.144E+02   -.884E+01 0.864E+01 -.143E+02   0.174E+00 0.930E-01 -.102E+00
   0.161E+02 -.107E+02 0.105E+02   -.164E+02 0.111E+02 -.105E+02   0.266E+00 -.232E+00 0.617E-01
   -.240E+01 -.544E+01 0.113E+02   0.209E+01 0.545E+01 -.112E+02   0.281E+00 -.861E-01 -.634E-01
   0.664E+01 0.735E+01 0.645E+01   -.716E+01 -.775E+01 -.648E+01   0.416E+00 0.389E+00 0.370E-01
   0.549E+01 -.559E+01 0.100E+02   -.531E+01 0.557E+01 -.101E+02   -.990E-01 0.253E-02 0.440E-01
   -.961E+01 0.820E+01 0.161E+02   0.976E+01 -.864E+01 -.162E+02   -.105E+00 0.503E+00 0.730E-01
   -.382E+01 0.231E+02 0.123E+02   0.372E+01 -.238E+02 -.120E+02   0.131E+00 0.661E+00 -.221E+00
   0.380E+02 0.577E+02 -.796E+01   -.405E+02 -.611E+02 0.728E+01   0.248E+01 0.320E+01 0.658E+00
   0.777E+01 0.275E+02 0.898E+01   -.812E+01 -.281E+02 -.911E+01   0.280E+00 0.556E+00 0.159E+00
   -.255E+02 0.334E+02 0.260E+02   0.263E+02 -.346E+02 -.263E+02   -.660E+00 0.112E+01 0.295E+00
   -.450E+02 0.509E+02 0.386E+01   0.472E+02 -.546E+02 -.447E+01   -.231E+01 0.358E+01 0.631E+00
   -.145E+01 -.509E+02 0.209E+02   -.491E+00 0.540E+02 -.209E+02   0.174E+01 -.305E+01 -.546E-02
   0.972E+01 -.228E+02 0.953E+01   -.971E+01 0.230E+02 -.946E+01   0.136E+00 -.324E+00 -.783E-01
   0.720E+00 -.513E+02 0.183E+02   0.520E+00 0.542E+02 -.184E+02   -.104E+01 -.262E+01 0.113E+00
   -.130E+02 -.189E+02 0.136E+02   0.129E+02 0.195E+02 -.136E+02   0.553E-01 -.429E+00 -.286E-02
   -.587E+01 -.201E+01 0.135E+02   0.604E+01 0.195E+01 -.135E+02   -.123E+00 0.367E-01 0.123E-01
   -.996E+01 0.351E+01 0.189E+02   0.999E+01 -.364E+01 -.189E+02   -.930E-01 0.150E+00 -.201E-02
   -.103E+02 0.124E+00 0.161E+02   0.104E+02 -.152E+00 -.162E+02   -.219E+00 -.370E-01 0.289E-01
   -.175E+01 0.449E+01 0.131E+02   0.192E+01 -.465E+01 -.131E+02   -.166E+00 0.130E+00 0.238E-01
   -.802E+01 0.345E+01 0.185E+02   0.829E+01 -.351E+01 -.185E+02   -.248E+00 0.104E+00 0.101E-01
   -.239E+02 0.112E+02 0.266E+02   0.245E+02 -.114E+02 -.267E+02   -.695E+00 0.162E+00 0.174E+00
   -.122E+02 0.102E+02 0.232E+02   0.124E+02 -.105E+02 -.232E+02   -.253E+00 0.307E+00 0.436E-01
   -.165E+01 0.341E+01 0.187E+02   0.174E+01 -.349E+01 -.187E+02   -.141E+00 0.496E-01 0.508E-01
   -.902E+01 0.265E+01 0.171E+02   0.950E+01 -.248E+01 -.171E+02   -.384E+00 -.121E+00 0.211E-01
   -.590E+02 -.112E+02 0.130E+02   0.632E+02 0.117E+02 -.131E+02   -.404E+01 -.539E+00 0.148E+00
   -.259E+02 0.276E+01 0.168E+02   0.265E+02 -.282E+01 -.168E+02   -.583E+00 0.133E+00 -.236E-01
   0.954E-01 -.276E+01 0.147E+02   -.268E+00 0.303E+01 -.147E+02   0.116E+00 -.281E+00 -.129E-01
   -.135E+01 -.285E+01 0.165E+02   0.148E+01 0.309E+01 -.165E+02   -.265E-01 -.147E+00 0.227E-01
   -.521E+02 -.680E+00 0.180E+02   0.556E+02 0.507E+00 -.179E+02   -.361E+01 0.263E+00 -.903E-01
   -.250E+02 -.458E+01 0.169E+02   0.252E+02 0.482E+01 -.169E+02   -.249E+00 -.249E+00 0.441E-01
   -.198E+01 -.985E+00 0.187E+02   0.203E+01 0.881E+00 -.187E+02   -.149E+00 0.589E-01 0.151E-01
   -.562E+01 -.680E+01 0.139E+02   0.590E+01 0.659E+01 -.139E+02   -.293E+00 0.131E+00 0.170E-01
   -.154E+02 -.934E+01 0.145E+02   0.157E+02 0.961E+01 -.145E+02   -.250E+00 -.160E+00 0.463E-01
   -.206E+02 -.353E+01 0.135E+02   0.210E+02 0.364E+01 -.136E+02   -.412E+00 -.181E+00 -.718E-03
   -.201E+01 0.133E+01 0.115E+02   0.210E+01 -.132E+01 -.115E+02   -.121E+00 0.308E-01 -.122E-01
   0.515E+02 0.575E+01 -.215E+02   -.324E+02 -.544E+01 0.243E+02   -.179E+02 -.424E+00 -.291E+01
   0.972E+01 0.600E+02 -.495E+02   -.189E+02 -.446E+02 0.538E+02   0.890E+01 -.145E+02 -.428E+01
   -.608E+02 -.288E+02 0.465E+01   0.519E+02 0.454E+02 -.363E+01   0.859E+01 -.159E+02 -.862E+00
   0.260E+02 -.765E+01 0.490E+02   -.167E+02 -.876E+01 -.501E+02   -.878E+01 0.153E+02 0.121E+01
   -.406E+02 0.399E+01 0.493E+02   0.321E+02 -.188E+02 -.509E+02   0.838E+01 0.141E+02 0.139E+01
   0.240E+02 -.659E+02 -.903E+03   -.280E+02 0.596E+02 0.897E+03   0.296E+01 0.595E+01 0.825E+01
   -.198E+02 -.244E+02 0.193E+03   0.238E+02 0.292E+02 -.192E+03   -.414E+01 -.433E+01 -.201E+01
 -----------------------------------------------------------------------------------------------
   0.390E+01 -.376E+01 -.428E+01   0.654E-12 0.441E-12 -.284E-12   -.427E+01 0.364E+01 0.500E+01
 
 
 POSITION                                       TOTAL-FORCE (eV/Angst)
 -----------------------------------------------------------------------------------
      2.85150      0.02549     10.00596         0.118163     -0.227912     -0.001511
      0.73559      1.26538      9.98041         0.024385     -0.026013     -0.001528
      1.42648      0.01699      9.98385        -0.094769     -0.016327     -0.007013
      3.56365      1.27952     10.05305         0.090907      0.088289     -0.003671
      2.88019      2.54199     10.09885         0.033228     -0.061098     -0.005822
      0.72538      3.74954      9.98947         0.070816      0.003076      0.018340
      1.44634      2.51774     10.02509        -0.050452      0.023552     -0.005399
      3.60326      3.79523     10.20728         0.091246     -0.122637     -0.024687
      2.84054      5.04250     10.19526         0.105788      0.517323      0.078271
      0.69257      6.23829      9.99272         0.057237      0.020606      0.003963
      1.41715      5.00071     10.03369        -0.029933     -0.063539      0.030001
      2.84046      7.46590     10.09374        -0.001100      0.052898      0.043624
      0.68672      8.70025      9.93738         0.102927     -0.011244      0.034951
      1.40909      7.47754      9.98891        -0.057683      0.072804      0.056089
      3.61400      8.69459     10.00927        -0.192943     -0.059475      0.006857
      2.86430      9.92191      9.97212         0.025730     -0.206831      0.010317
      0.71653     11.17179      9.95310         0.028920      0.066438     -0.002767
      1.42411      9.92600      9.95412        -0.056878     -0.089634      0.000621
      3.55291     11.18773      9.98407        -0.101556      0.239976      0.006683
      7.11231      0.02004      9.95896        -0.010541     -0.084316      0.000486
      4.98209      1.26245     10.03382        -0.081053      0.007455      0.003013
      5.69248      0.02670      9.98627         0.076211     -0.026110     -0.003111
      7.84335      1.23470      9.95391         0.034442      0.098128      0.010215
      7.13624      2.45447     10.01350         0.044162     -0.009845      0.009410
      5.04976      3.74138     10.22445         0.119013      0.002767      0.020108
      5.71223      2.48665     10.07545        -0.062836      0.060620      0.039427
      7.87387      3.65865     10.00388         0.053334      0.016006      0.039493
      7.18034      4.85921     10.15098        -0.190406      0.085902      0.055489
      7.10488      9.97759      9.93281        -0.103415     -0.053859      0.008637
      4.97891     11.19108      9.98240         0.152857     -0.095139     -0.011770
      5.67625      9.96141      9.96860         0.151594      0.067385      0.027219
      7.81895     11.19332      9.93539        -0.087438      0.076692     -0.005661
     11.40125      0.00925      9.92265         0.044747     -0.029057      0.000656
      9.26781      1.24080      9.91929        -0.072926      0.028426      0.015654
      9.97234      0.00411      9.91360        -0.062500     -0.064147      0.003822
     12.11972      1.25172      9.93694        -0.003375     -0.022309      0.002342
     11.41270      2.48915      9.92235         0.002348      0.045291      0.010888
      9.28535      3.69798      9.93697        -0.077944     -0.020036      0.038823
      9.99052      2.47223      9.91308        -0.034861      0.021551      0.014605
     12.10612      3.73951      9.93983        -0.049979     -0.026820      0.013155
     11.38170      4.97676      9.94061         0.076250      0.049022      0.014174
      9.18704      6.16585      9.98990        -0.110910     -0.066401      0.006806
      9.95558      4.95638      9.95274        -0.047885      0.074903     -0.005606
     12.06809      6.22889      9.95117        -0.052488     -0.029831     -0.002121
     11.31876      7.45453      9.93158         0.118961      0.087264      0.005695
      9.15650      8.70195      9.92288        -0.320240      0.108433      0.001371
      9.86288      7.44214      9.94074        -0.001597     -0.022645      0.014451
     12.05726      8.68546      9.92112        -0.113705     -0.035025      0.006865
     11.35701      9.92485      9.92043        -0.018180     -0.078728     -0.001124
      9.24477     11.17920      9.91882        -0.034162      0.101073     -0.002222
      9.92258      9.92382      9.91969         0.032814     -0.077371     -0.006581
     12.09290     11.16327      9.93040        -0.035143      0.051345     -0.004113
      3.46193      6.25715     10.33621        -0.444140     -0.149685     -0.357387
      5.83651      4.87291     10.39090         0.480507     -0.317310     -0.312916
      7.80774      6.07955     10.08164         0.423768     -0.759175      0.092282
      5.03242      8.72026      9.99241        -0.254085      0.226605      0.157860
      7.76733      8.76184      9.90273         0.596650      0.493939     -0.035384
      5.08838      6.35263     11.25884        -0.449986     -0.311308      0.303290
      6.48411      7.40852      9.95034         0.148102      0.376056     -0.405555
 -----------------------------------------------------------------------------------
    total drift:                                0.002795     -0.006262     -0.004656


--------------------------------------------------------------------------------------------------------



  FREE ENERGIE OF THE ION-ELECTRON SYSTEM (eV)
  ---------------------------------------------------
  free  energy   TOTEN  =      -616.42689464 eV

  energy  without entropy=     -616.42639176  energy(sigma->0) =     -616.42664320
 


--------------------------------------------------------------------------------------------------------


    POTLOK:  cpu time    2.1658: real time    2.1718


--------------------------------------------------------------------------------------------------------


 stress matrix after NEB project (eV)
    -42.99831    -10.17685     -0.47841
    -10.17634    -38.92327     -0.59738
     -0.47849     -0.60348     -0.25605
  FORCES: max atom, RMS     0.874323    0.262669
  FORCE total and by dimension    2.017601    0.759175
  Stress total and by dimension   59.768271   42.998308
 writing wavefunctions
     LOOP+:  cpu time11798.9051: real time11843.9799
 vacuum level on the upper side and lower side of the slab         1.405         1.598
    4ORBIT:  cpu time    0.0000: real time    0.0000
 


 total charge     
 
# of ion       s       p       d       tot
------------------------------------------
    1        0.863   1.767   0.000   2.630
    2        0.865   1.758   0.000   2.624
    3        0.865   1.772   0.000   2.637
    4        0.862   1.767   0.000   2.629
    5        0.860   1.736   0.000   2.596
    6        0.865   1.764   0.000   2.629
    7        0.860   1.763   0.000   2.623
    8        0.847   1.743   0.000   2.591
    9        0.857   1.707   0.000   2.564
   10        0.865   1.748   0.000   2.613
   11        0.863   1.772   0.000   2.635
   12        0.852   1.730   0.000   2.581
   13        0.863   1.768   0.000   2.631
   14        0.865   1.772   0.000   2.637
   15        0.844   1.698   0.000   2.542
   16        0.860   1.746   0.000   2.606
   17        0.864   1.756   0.000   2.619
   18        0.861   1.759   0.000   2.620
   19        0.864   1.768   0.000   2.632
   20        0.869   1.795   0.000   2.664
   21        0.869   1.772   0.000   2.642
   22        0.866   1.782   0.000   2.648
   23        0.870   1.794   0.000   2.664
   24        0.874   1.787   0.000   2.660
   25        0.856   1.713   0.000   2.569
   26        0.866   1.784   0.000   2.650
   27        0.876   1.832   0.000   2.709
   28        0.868   1.742   0.000   2.610
   29        0.864   1.762   0.000   2.626
   30        0.869   1.782   0.000   2.651
   31        0.859   1.748   0.000   2.607
   32        0.871   1.795   0.000   2.667
   33        0.866   1.764   0.000   2.629
   34        0.868   1.772   0.000   2.640
   35        0.866   1.781   0.000   2.646
   36        0.865   1.772   0.000   2.637
   37        0.869   1.769   0.000   2.638
   38        0.872   1.785   0.000   2.657
   39        0.869   1.788   0.000   2.656
   40        0.863   1.768   0.000   2.631
   41        0.867   1.760   0.000   2.626
   42        0.856   1.708   0.000   2.565
   43        0.864   1.782   0.000   2.646
   44        0.861   1.767   0.000   2.628
   45        0.858   1.736   0.000   2.594
   46        0.853   1.702   0.000   2.555
   47        0.849   1.753   0.000   2.602
   48        0.861   1.766   0.000   2.627
   49        0.864   1.755   0.000   2.619
   50        0.868   1.768   0.000   2.636
   51        0.861   1.768   0.000   2.629
   52        0.863   1.762   0.000   2.625
   53        1.228   2.688   0.000   3.916
   54        1.226   2.696   0.000   3.922
   55        1.230   2.699   0.000   3.929
   56        1.216   2.648   0.000   3.863
   57        1.225   2.680   0.000   3.905
   58        0.439   0.401   8.530   9.370
   59        0.470   0.565   6.320   7.354
--------------------------------------------------
tot         51.921 105.984  14.849 172.754
 


 magnetization (x)
 
# of ion       s       p       d       tot
------------------------------------------
    1       -0.000  -0.001   0.000  -0.002
    2       -0.000  -0.002   0.000  -0.003
    3        0.000   0.004   0.000   0.004
    4        0.000   0.002   0.000   0.002
    5       -0.000  -0.003   0.000  -0.003
    6       -0.000  -0.004   0.000  -0.004
    7        0.000   0.004   0.000   0.005
    8        0.000   0.005   0.000   0.006
    9       -0.001  -0.006   0.000  -0.007
   10       -0.000  -0.002   0.000  -0.002
   11        0.001   0.006   0.000   0.007
   12        0.000   0.001   0.000   0.001
   13       -0.000  -0.001   0.000  -0.001
   14        0.001   0.003   0.000   0.004
   15        0.001   0.006   0.000   0.007
   16       -0.000  -0.002   0.000  -0.002
   17       -0.000  -0.003   0.000  -0.003
   18        0.000   0.004   0.000   0.004
   19        0.000   0.002   0.000   0.003
   20        0.000   0.002   0.000   0.003
   21       -0.000  -0.001   0.000  -0.001
   22       -0.000  -0.000   0.000  -0.000
   23        0.000   0.002   0.000   0.002
   24       -0.000  -0.002   0.000  -0.002
   25       -0.001  -0.005   0.000  -0.006
   26        0.001   0.004   0.000   0.004
   27        0.000   0.002   0.000   0.002
   28        0.000   0.004   0.000   0.004
   29        0.000   0.007   0.000   0.007
   30       -0.000  -0.001   0.000  -0.001
   31       -0.000  -0.000   0.000  -0.000
   32       -0.000  -0.001   0.000  -0.002
   33       -0.000  -0.003   0.000  -0.003
   34       -0.000   0.000   0.000   0.000
   35        0.000   0.001   0.000   0.002
   36        0.000   0.004   0.000   0.004
   37       -0.000  -0.003   0.000  -0.003
   38        0.000   0.002   0.000   0.002
   39        0.000   0.001   0.000   0.001
   40        0.000   0.003   0.000   0.003
   41       -0.000  -0.003   0.000  -0.004
   42       -0.000   0.001   0.000   0.001
   43        0.000   0.002   0.000   0.002
   44        0.000   0.003   0.000   0.004
   45       -0.000  -0.002   0.000  -0.002
   46       -0.000  -0.002   0.000  -0.002
   47        0.000   0.003   0.000   0.003
   48        0.000   0.004   0.000   0.005
   49       -0.000  -0.001   0.000  -0.002
   50       -0.000  -0.003   0.000  -0.004
   51       -0.000   0.003   0.000   0.002
   52        0.000   0.002   0.000   0.003
   53        0.008   0.048   0.000   0.056
   54        0.006   0.029   0.000   0.035
   55       -0.003  -0.018   0.000  -0.021
   56       -0.003  -0.006   0.000  -0.009
   57       -0.006  -0.041   0.000  -0.047
   58       -0.011   0.032   0.898   0.919
   59        0.012   0.003   1.837   1.851
--------------------------------------------------
tot          0.004   0.086   2.735   2.824
 

 total amount of memory used by VASP MPI-rank0   153316. kBytes
=======================================================================

   base      :      30000. kBytes
   nonl-proj :       4307. kBytes
   fftplans  :      11188. kBytes
   grid      :      29312. kBytes
   one-center:         62. kBytes
   HF        :         23. kBytes
   nonlr-proj:      15697. kBytes
   wavefun   :      62727. kBytes
 
  
  
 General timing and accounting informations for this job:
 ========================================================
  
                  Total CPU time used (sec):    11863.267
                            User time (sec):    11816.492
                          System time (sec):       46.774
                         Elapsed time (sec):    11914.824
  
                   Maximum memory used (kb):      395784.
                   Average memory used (kb):           0.
  
                          Minor page faults:      1244082
                          Major page faults:            1
                 Voluntary context switches:       174021
